# vtk DataFile Version 3.0
trk2vtk output
ASCII
DATASET POLYDATA
POINTS 6394 float
 85.00573730  27.55737877   0.99865288
 85.25582886  27.41308784   0.99867016
 85.89891052  27.04202271   0.99870622
 86.77416229  26.53688622   0.99873883
 87.72079468  25.99038506   0.99874479
 88.57799530  25.49522400   0.99870181
 89.29653931  25.07957077   0.99856693
 90.01110077  24.66562271   0.99833184
 90.72559357  24.25154686   0.99806911
 91.44020081  23.83766747   0.99784982
 92.15510559  23.42430687   0.99774754
 92.87049866  23.01179886   0.99783695
 93.58638763  22.60014343   0.99811900
 94.30251312  22.18890572   0.99849486
 95.01862335  21.77763557   0.99886280
 95.73445129  21.36587715   0.99912113
 96.44976807  20.95322800   0.99917740
 97.16462708  20.53978729   0.99905443
 97.87921906  20.12589073   0.99882871
 98.59373474  19.71185684   0.99857241
 99.30836487  19.29801178   0.99835855
100.02326965  18.88465500   0.99825531
100.73841095  18.47170067   0.99824345
101.45368195  18.05896759   0.99828196
102.16899872  17.64632225   0.99834025
102.88429260  17.23363113   0.99838865
103.60320282  16.81861496   0.99839658
104.46041870  16.32348442   0.99836051
105.40688324  15.77669144   0.99830025
106.28188324  15.27112007   0.99823505
106.92473602  14.89965820   0.99818271
107.17472839  14.75519657   0.99816096
 85.07404327  27.67568970   2.30888915
 85.32408142  27.53129959   2.30891824
 85.96703339  27.16002083   2.30897999
 86.84217834  26.65469360   2.30903530
 87.78878784  26.10815620   2.30904579
 88.64613342  25.61325073   2.30897260
 89.36513519  25.19839478   2.30874157
 90.08049774  24.78583336   2.30834031
 90.79589081  24.37331009   2.30789089
 91.51124573  23.96072578   2.30751657
 92.22650146  23.54797173   2.30734086
 92.94159698  23.13493919   2.30749130
 93.65652466  22.72163010   2.30796909
 94.37138367  22.30818367   2.30860662
 95.08624268  21.89475060   2.30923200
 95.80120087  21.48147392   2.30967045
 96.51631927  21.06848907   2.30976725
 97.23159027  20.65576172   2.30956197
 97.94694519  20.24318314   2.30918097
 98.66233063  19.83064842   2.30874896
 99.37767792  19.41805267   2.30838823
100.09293365  19.00529671   2.30821443
100.80811310  18.59241104   2.30819511
101.52324677  18.17945099   2.30826092
102.23837280  17.76646423   2.30835962
102.95349884  17.35349083   2.30844116
103.67238617  16.93842697   2.30845499
104.52972412  16.44351196   2.30839276
105.47638702  15.89707184   2.30829096
106.35161591  15.39188576   2.30817938
106.99463654  15.02073479   2.30808949
107.24470520  14.87640095   2.30805302
 85.25772858  27.99383545   1.99486756
 85.50777435  27.84946823   1.99492884
 86.15075684  27.47824097   1.99505770
 87.02593231  26.97295952   1.99517334
 87.97254181  26.42643166   1.99519503
 88.82985687  25.93146324   1.99504197
 89.54874420  25.51641655   1.99455893
 90.26392365  25.10352135   1.99372029
 90.97909546  24.69062614   1.99278033
 91.69426727  24.27772903   1.99199748
 92.40943909  23.86483002   1.99163008
 93.12460327  23.45192337   1.99194610
 93.83976746  23.03901100   1.99294579
 94.55492401  22.62609482   1.99428082
 95.27008820  22.21318054   1.99558866
 95.98525238  21.80026817   1.99650741
 96.70042419  21.38736343   1.99670982
 97.41559601  20.97446632   1.99627817
 98.13076782  20.56157112   1.99548101
 98.84593964  20.14867783   1.99457514
 99.56111908  19.73578262   1.99381948
100.27629089  19.32288361   1.99345553
100.99145508  18.90998077   1.99341452
101.70662689  18.49707603   1.99355137
102.42179871  18.08417130   1.99375832
103.13696289  17.67126465   1.99392867
103.85585785  17.25621223   1.99395728
104.71316528  16.76124573   1.99382842
105.65978241  16.21471977   1.99361455
106.53495026  15.70944214   1.99338138
107.17794037  15.33821678   1.99319422
107.42798615  15.19385147   1.99311721
 84.85408020  27.29470253   2.18303871
 85.10412598  27.15032196   2.18302989
 85.74708557  26.77906418   2.18301058
 86.62224579  26.27375603   2.18299317
 87.56885529  25.72722244   2.18298984
 88.42618561  25.23229218   2.18301296
 89.14514160  24.81735992   2.18308425
 89.86043549  24.40466499   2.18320870
 90.57573700  23.99199486   2.18334794
 91.29101562  23.57928658   2.18346405
 92.00624084  23.16647339   2.18351841
 92.72136688  22.75349236   2.18347144
 93.43639374  22.34034157   2.18332314
 94.15136719  21.92710876   2.18312454
 94.86634827  21.51387978   2.18293047
 95.58139038  21.10074997   2.18279433
 96.29653168  20.68779564   2.18276405
 97.01175690  20.27499962   2.18282843
 97.72704315  19.86229324   2.18294740
 98.44234467  19.44961548   2.18308163
 99.15762329  19.03689957   2.18319440
 99.87284088  18.62408638   2.18324852
100.58802032  18.21119308   2.18325448
101.30316925  17.79825592   2.18323421
102.01830292  17.38530159   2.18320370
102.73345184  16.97235489   2.18317795
103.45233917  16.55729675   2.18317413
104.30966949  16.06236076   2.18319273
105.25630951  15.51588631   2.18322492
106.13151550  15.01066399   2.18325949
106.77452087  14.63948441   2.18328714
107.02458191  14.49513721   2.18329859
 84.47466278  26.63753128   2.29219365
 84.72470093  26.49314308   2.29211855
 85.36765289  26.12186432   2.29196048
 86.24280548  25.61653900   2.29181814
 87.18940735  25.07000351   2.29179168
 88.04675293  24.57509422   2.29197979
 88.76575470  24.16023064   2.29257298
 89.48110962  23.74765205   2.29360223
 90.19648743  23.33511353   2.29475594
 90.91183472  22.92251396   2.29571724
 91.62709045  22.50975418   2.29616809
 92.34218597  22.09673119   2.29577947
 93.05712891  21.68344116   2.29455161
 93.77199554  21.27002335   2.29291224
 94.48687744  20.85661507   2.29130554
 95.20183563  20.44335747   2.29017758
 95.91696167  20.03037643   2.28992963
 96.63222504  19.61763763   2.29045963
 97.34757233  19.20504379   2.29143953
 98.06294250  18.79248810   2.29255176
 98.77828217  18.37987709   2.29348016
 99.49353027  17.96711349   2.29392767
100.20870972  17.55422592   2.29397750
100.92385101  17.14126968   2.29381013
101.63896942  16.72828484   2.29355574
102.35410309  16.31531525   2.29334641
103.07299042  15.90025330   2.29331136
103.93032837  15.40533447   2.29346991
104.87699127  14.85888958   2.29373217
105.75221252  14.35369968   2.29401851
106.39524078  13.98254490   2.29424882
106.64530945  13.83820915   2.29434299
 85.12685394  27.76715279   1.95033395
 85.37689972  27.62278938   1.95037246
 86.01988983  27.25156975   1.95045304
 86.89506531  26.74629402   1.95052612
 87.84167480  26.19976807   1.95053947
 88.69898224  25.70479202   1.95044315
 89.41786194  25.28971863   1.95014036
 90.13301086  24.87677574   1.94961381
 90.84815216  24.46382904   1.94902408
 91.56330109  24.05088806   1.94853318
 92.27845764  23.63796806   1.94830251
 92.99363708  23.22507858   1.94850111
 93.70883179  22.81222153   1.94912839
 94.42403412  22.39937973   1.94996607
 95.13923645  21.98653793   1.95078683
 95.85443115  21.57367706   1.95136333
 96.56961060  21.16078568   1.95149016
 97.28476715  20.74786186   1.95121956
 97.99991608  20.33492279   1.95071924
 98.71505737  19.92197800   1.95015073
 99.43020630  19.50904083   1.94967663
100.14537048  19.09612083   1.94944787
100.86053467  18.68321419   1.94942272
101.57571411  18.27031898   1.94950819
102.29088593  17.85742378   1.94963801
103.00605774  17.44452858   1.94974530
103.72495270  17.02947807   1.94976306
104.58226013  16.53450394   1.94968200
105.52886963  15.98796654   1.94954813
106.40402985  15.48267555   1.94940197
107.04701233  15.11144066   1.94928443
107.29705811  14.96707153   1.94923604
 85.34580231  28.14638138   2.36201715
 85.59583282  28.00198555   2.36209369
 86.23878479  27.63069725   2.36225533
 87.11392212  27.12536240   2.36240005
 88.06053162  26.57882309   2.36242723
 88.91788483  26.08392715   2.36223507
 89.63690186  25.66910362   2.36163044
 90.35230255  25.25659561   2.36058092
 91.06772614  24.84413528   2.35940409
 91.78311157  24.43160248   2.35842419
 92.49837494  24.01887131   2.35796428
 93.21345520  23.60581970   2.35835934
 93.92835236  23.19244385   2.35961032
 94.64315796  22.77891159   2.36128092
 95.35796356  22.36539078   2.36291718
 96.07288361  21.95205498   2.36406708
 96.78799438  21.53905678   2.36432028
 97.50328064  21.12635994   2.36378098
 98.21867371  20.71383476   2.36278367
 98.93408966  20.30136108   2.36165071
 99.64946747  19.88881493   2.36070585
100.36473083  19.47608376   2.36025000
101.07991791  19.06320000   2.36019969
101.79505157  18.65023232   2.36037064
102.51016235  18.23723030   2.36062932
103.22528839  17.82424545   2.36084318
103.94416809  17.40918159   2.36087871
104.80151367  16.91427422   2.36071682
105.74818420  16.36784554   2.36044955
106.62342072  15.86267471   2.36015821
107.26645660  15.49153709   2.35992360
107.51652527  15.34720802   2.35982728
 84.69494629  27.01907349   1.71837449
 84.94500732  26.87472725   1.71833801
 85.58802032  26.50354385   1.71825993
 86.46321106  25.99830437   1.71819031
 87.40982819  25.45178413   1.71817744
 88.26710510  24.95676422   1.71826982
 88.98590851  24.54154968   1.71856070
 89.70091248  24.12836266   1.71906602
 90.41590118  23.71514320   1.71963203
 91.13091278  23.30197525   1.72010374
 91.84600830  22.88894844   1.72032499
 92.56124115  22.47615242   1.72013485
 93.27660370  22.06358719   1.71953273
 93.99203491  21.65113640   1.71872914
 94.70745850  21.23867416   1.71794188
 95.42280579  20.82608223   1.71738875
 96.13801575  20.41324806   1.71726668
 96.85310364  20.00019836   1.71752596
 97.56811523  19.58702469   1.71800613
 98.28310394  19.17381477   1.71855092
 98.99813080  18.76065636   1.71900523
 99.71322632  18.34762955   1.71922457
100.42839050  17.93471146   1.71924877
101.14358521  17.52185440   1.71916628
101.85879517  17.10902214   1.71904182
102.57399750  16.69617653   1.71893907
103.29289246  16.28113365   1.71892226
104.15017700  15.78612137   1.71899986
105.09674835  15.23952293   1.71912873
105.97187805  14.73416328   1.71926904
[...]
POINT_DATA 6394
COLOR_SCALARS tangents 4
  0.86617459   0.49974152   0.00005987 1.0
  0.86615265   0.49977953   0.00004857 1.0
  0.86610696   0.49985872   0.00003226 1.0
  0.86604018   0.49997440   0.00000545 1.0
  0.86591338   0.50019397   0.00004341 1.0
  0.86560692   0.50072411   0.00016249 1.0
  0.86529255   0.50126712   0.00028467 1.0
  0.86520451   0.50141904   0.00031816 1.0
  0.86534254   0.50118083   0.00026554 1.0
  0.86570530   0.50055401   0.00012386 1.0
  0.86630022   0.49952369   0.00010827 1.0
  0.86689617   0.49848863   0.00034154 1.0
  0.86718574   0.49798463   0.00045515 1.0
  0.86716420   0.49802213   0.00044555 1.0
  0.86682391   0.49861430   0.00031282 1.0
  0.86620319   0.49969193   0.00006814 1.0
  0.86564937   0.50065073   0.00014890 1.0
  0.86532888   0.50120440   0.00027334 1.0
  0.86523352   0.50136898   0.00031036 1.0
  0.86536753   0.50113767   0.00025897 1.0
  0.86570730   0.50055055   0.00012501 1.0
  0.86599011   0.50006113   0.00001436 1.0
  0.86614536   0.49979217   0.00004663 1.0
  0.86620519   0.49968846   0.00007059 1.0
  0.86617428   0.49974205   0.00005861 1.0
  0.86604983   0.49995769   0.00000955 1.0
  0.86593059   0.50016418   0.00003643 1.0
  0.86588615   0.50024111   0.00005513 1.0
  0.86585829   0.50028933   0.00006453 1.0
  0.86584417   0.50031376   0.00007049 1.0
  0.86583267   0.50033367   0.00007535 1.0
  0.86583267   0.50033367   0.00007535 1.0
  0.86597963   0.50007926   0.00010074 1.0
  0.86598441   0.50007098   0.00008317 1.0
  0.86599881   0.50004605   0.00005474 1.0
  0.86602059   0.50000834   0.00000960 1.0
  0.86606181   0.49993694   0.00007394 1.0
  0.86616092   0.49976513   0.00027831 1.0
  0.86626292   0.49958815   0.00048590 1.0
  0.86629210   0.49953748   0.00054422 1.0
  0.86624863   0.49961296   0.00045327 1.0
  0.86612973   0.49981921   0.00021278 1.0
  0.86593522   0.50015614   0.00018218 1.0
  0.86573913   0.50049518   0.00057858 1.0
  0.86564612   0.50065578   0.00077201 1.0
  0.86565313   0.50064367   0.00075729 1.0
  0.86576542   0.50044975   0.00053094 1.0
  0.86596717   0.50010084   0.00011722 1.0
  0.86614834   0.49978695   0.00024858 1.0
  0.86625162   0.49960776   0.00046136 1.0
  0.86628381   0.49955189   0.00052314 1.0
  0.86624033   0.49962736   0.00043682 1.0
  0.86612873   0.49982095   0.00021047 1.0
  0.86603766   0.49997877   0.00002339 1.0
  0.86598479   0.50007033   0.00007968 1.0
  0.86596848   0.50009857   0.00011953 1.0
  0.86597548   0.50008645   0.00009874 1.0
  0.86601807   0.50001271   0.00001666 1.0
  0.86605571   0.49994750   0.00006286 1.0
  0.86607133   0.49992043   0.00009314 1.0
  0.86608005   0.49990533   0.00011041 1.0
  0.86608206   0.49990184   0.00012106 1.0
  0.86609043   0.49988733   0.00012634 1.0
  0.86609043   0.49988733   0.00012634 1.0
  0.86602055   0.50000836   0.00021222 1.0
  0.86602472   0.50000116   0.00017357 1.0
  0.86602598   0.49999900   0.00011442 1.0
  0.86602437   0.50000179   0.00001985 1.0
  0.86602656   0.49999797   0.00015462 1.0
  0.86602687   0.49999711   0.00058190 1.0
  0.86603221   0.49998717   0.00101553 1.0
  0.86602979   0.49999111   0.00113824 1.0
  0.86602896   0.49999294   0.00094798 1.0
  0.86602827   0.49999484   0.00044490 1.0
  0.86602198   0.50000579   0.00038269 1.0
  0.86601841   0.50001065   0.00121056 1.0
  0.86601360   0.50001783   0.00161664 1.0
  0.86601695   0.50001213   0.00158371 1.0
  0.86601851   0.50001071   0.00111254 1.0
  0.86602533   0.50000008   0.00024511 1.0
  0.86602923   0.49999309   0.00052271 1.0
  0.86602995   0.49999120   0.00096530 1.0
  0.86603083   0.49998940   0.00109696 1.0
  0.86603230   0.49998722   0.00091506 1.0
  0.86602827   0.49999485   0.00044072 1.0
  0.86602404   0.50000236   0.00004966 1.0
  0.86602534   0.50000008   0.00016572 1.0
  0.86602532   0.50000008   0.00025060 1.0
  0.86602202   0.50000581   0.00020628 1.0
  0.86602633   0.49999839   0.00003447 1.0
  0.86602547   0.49999987   0.00013018 1.0
  0.86602685   0.49999745   0.00019565 1.0
  0.86602571   0.49999942   0.00023074 1.0
  0.86602838   0.49999477   0.00025208 1.0
  0.86602340   0.50000340   0.00026672 1.0
  0.86602340   0.50000340   0.00026672 1.0
  0.86600055   0.50004305   0.00003055 1.0
  0.86599922   0.50004534   0.00002601 1.0
  0.86601076   0.50002535   0.00001722 1.0
  0.86602210   0.50000572   0.00000305 1.0
  0.86604711   0.49996240   0.00002336 1.0
  0.86610738   0.49985797   0.00008588 1.0
  0.86617227   0.49974551   0.00015071 1.0
  0.86618757   0.49971898   0.00016861 1.0
  0.86616066   0.49976564   0.00014060 1.0
  0.86608952   0.49988893   0.00006583 1.0
  0.86597148   0.50009338   0.00005688 1.0
  0.86585239   0.50029952   0.00017958 1.0
  0.86579316   0.50040199   0.00024050 1.0
  0.86579747   0.50039452   0.00023501 1.0
  0.86586802   0.50027247   0.00016485 1.0
  0.86599011   0.50006113   0.00003667 1.0
  0.86609851   0.49987334   0.00007795 1.0
  0.86616397   0.49975991   0.00014407 1.0
  0.86618358   0.49972591   0.00016254 1.0
  0.86615666   0.49977257   0.00013656 1.0
  0.86608721   0.49989293   0.00006554 1.0
  0.86603366   0.49998570   0.00000722 1.0
  0.86600142   0.50004154   0.00002454 1.0
  0.86598780   0.50006513   0.00003696 1.0
  0.86599642   0.50005020   0.00003118 1.0
  0.86602105   0.50000754   0.00000460 1.0
  0.86604461   0.49996674   0.00001879 1.0
  0.86605250   0.49995306   0.00002945 1.0
  0.86605886   0.49994204   0.00003421 1.0
  0.86606024   0.49993965   0.00003725 1.0
  0.86606382   0.49993346   0.00003964 1.0
  0.86606382   0.49993346   0.00003964 1.0
  0.86598247   0.50007429   0.00026011 1.0
  0.86598440   0.50007097   0.00021290 1.0
  0.86600151   0.50004136   0.00014085 1.0
  0.86601960   0.50001005   0.00002421 1.0
  0.86606012   0.49993982   0.00019002 1.0
  0.86615675   0.49977192   0.00071459 1.0
  0.86625104   0.49960742   0.00124636 1.0
  0.86627878   0.49955893   0.00139707 1.0
  0.86623783   0.49963054   0.00116407 1.0
  0.86612662   0.49982435   0.00054595 1.0
  0.86594014   0.50014743   0.00047060 1.0
  0.86575295   0.50046940   0.00148686 1.0
  0.86566200   0.50062497   0.00198518 1.0
  0.86567170   0.50060835   0.00194560 1.0
  0.86577474   0.50043205   0.00136589 1.0
  0.86597144   0.50009336   0.00030026 1.0
  0.86613988   0.49980126   0.00064180 1.0
  0.86624080   0.49962532   0.00118660 1.0
  0.86626754   0.49957856   0.00134683 1.0
  0.86622956   0.49964496   0.00112423 1.0
  0.86612231   0.49983182   0.00054191 1.0
  0.86603666   0.49998050   0.00006034 1.0
  0.86598909   0.50006285   0.00020267 1.0
  0.86596713   0.50010082   0.00030805 1.0
  0.86597977   0.50007897   0.00025349 1.0
  0.86601906   0.50001098   0.00004222 1.0
  0.86605403   0.49995039   0.00016016 1.0
  0.86606942   0.49992369   0.00023993 1.0
  0.86607650   0.49991141   0.00028335 1.0
  0.86608237   0.49990123   0.00031020 1.0
  0.86608753   0.49989226   0.00032617 1.0
  0.86608753   0.49989226   0.00032617 1.0
  0.86602629   0.49999846   0.00013336 1.0
  0.86603174   0.49998901   0.00010854 1.0
  0.86602843   0.49999475   0.00007231 1.0
  0.86602512   0.50000049   0.00001221 1.0
  0.86602130   0.50000709   0.00009730 1.0
  0.86601074   0.50002527   0.00036476 1.0
  0.86599824   0.50004664   0.00063761 1.0
  0.86599389   0.50005407   0.00071413 1.0
  0.86599927   0.50004492   0.00059445 1.0
  0.86601270   0.50002193   0.00027933 1.0
  0.86603564   0.49998222   0.00024049 1.0
  0.86605703   0.49994464   0.00075960 1.0
  0.86606715   0.49992667   0.00101438 1.0
  0.86606716   0.49992668   0.00099389 1.0
  0.86605507   0.49994812   0.00069810 1.0
  0.86603465   0.49998396   0.00015359 1.0
  0.86601068   0.50002539   0.00032769 1.0
  0.86600026   0.50004318   0.00060586 1.0
  0.86599490   0.50005235   0.00068843 1.0
  0.86600128   0.50004146   0.00057410 1.0
  0.86601501   0.50001793   0.00027702 1.0
  0.86602204   0.50000582   0.00003046 1.0
  0.86603266   0.49998743   0.00010350 1.0
  0.86603034   0.49999142   0.00015720 1.0
  0.86603034   0.49999143   0.00012992 1.0
  0.86602733   0.49999666   0.00002140 1.0
  0.86602214   0.50000565   0.00008189 1.0
  0.86602058   0.50000833   0.00012247 1.0
  0.86601811   0.50001261   0.00014462 1.0
  0.86602027   0.50000887   0.00015831 1.0
  0.86601770   0.50001332   0.00016763 1.0
  0.86601770   0.50001332   0.00016763 1.0
  0.86596442   0.50010555   0.00026506 1.0
  0.86597883   0.50008061   0.00021772 1.0
  0.86599365   0.50005497   0.00014321 1.0
  0.86601983   0.50000965   0.00002487 1.0
  0.86606789   0.49992637   0.00019412 1.0
  0.86618222   0.49972776   0.00072838 1.0
  0.86630183   0.49951929   0.00127090 1.0
  0.86633355   0.49946385   0.00142507 1.0
  0.86628432   0.49954987   0.00118659 1.0
  0.86614392   0.49979436   0.00055692 1.0
  0.86592051   0.50018141   0.00047839 1.0
  0.86569399   0.50057129   0.00151486 1.0
  0.86558334   0.50076081   0.00202299 1.0
  0.86558942   0.50075047   0.00198143 1.0
  0.86572211   0.50052302   0.00139245 1.0
  0.86595782   0.50011695   0.00030661 1.0
  0.86616879   0.49975114   0.00065306 1.0
  0.86629060   0.49953892   0.00120767 1.0
  0.86632432   0.49948002   0.00137195 1.0
  0.86627506   0.49956602   0.00114415 1.0
  0.86614392   0.49979436   0.00055202 1.0
  0.86604097   0.49997303   0.00006092 1.0
  0.86598078   0.50007725   0.00020700 1.0
  0.86595582   0.50012041   0.00031325 1.0
  0.86596945   0.50009683   0.00025897 1.0
  0.86601577   0.50001669   0.00004280 1.0
  0.86606096   0.49993838   0.00016353 1.0
  0.86607759   0.49990954   0.00024451 1.0
  0.86608844   0.49989072   0.00028830 1.0
  0.86609494   0.49987943   0.00031598 1.0
  0.86609754   0.49987492   0.00033360 1.0
  0.86609754   0.49987492   0.00033360 1.0
  0.86606524   0.49993098   0.00012634 1.0
  0.86606058   0.49993905   0.00010517 1.0
  0.86604773   0.49996132   0.00006889 1.0
  0.86602914   0.49999354   0.00001178 1.0
  0.86599441   0.50005368   0.00009333 1.0
  0.86591412   0.50019258   0.00035040 1.0
  0.86582629   0.50034434   0.00061192 1.0
  0.86580461   0.50038176   0.00068540 1.0
  0.86583863   0.50032304   0.00057122 1.0
  0.86593820   0.50015094   0.00026792 1.0
  0.86610080   0.49986933   0.00023025 1.0
  0.86626079   0.49959155   0.00072914 1.0
  0.86634133   0.49945146   0.00097310 1.0
  0.86633304   0.49946587   0.00095332 1.0
  0.86624222   0.49962383   0.00066981 1.0
  0.86607389   0.49991599   0.00014782 1.0
  0.86592388   0.50017571   0.00031397 1.0
  0.86583562   0.50032823   0.00058146 1.0
  0.86580963   0.50037311   0.00065970 1.0
  0.86584827   0.50030638   0.00055013 1.0
  0.86593820   0.50015094   0.00026561 1.0
  0.86601604   0.50001622   0.00002930 1.0
  0.86605728   0.49994478   0.00009989 1.0
  0.86607489   0.49991425   0.00015071 1.0
  0.86606558   0.49993038   0.00012443 1.0
  0.86603131   0.49998977   0.00002025 1.0
  0.86599967   0.50004456   0.00007839 1.0
  0.86598768   0.50006532   0.00011789 1.0
  0.86598114   0.50007664   0.00013884 1.0
  0.86597572   0.50008603   0.00015237 1.0
  0.86597677   0.50008421   0.00016061 1.0
  0.86597677   0.50008421   0.00016061 1.0
  0.86609187   0.49988486   0.00003262 1.0
  0.86608130   0.49990318   0.00002665 1.0
  0.86606132   0.49993779   0.00001758 1.0
  0.86603065   0.49999092   0.00000316 1.0
  0.86597720   0.50008347   0.00002396 1.0
  0.86584302   0.50031576   0.00008932 1.0
  0.86570630   0.50055228   0.00015547 1.0
  0.86566701   0.50062022   0.00017467 1.0
  0.86572694   0.50051658   0.00014464 1.0
  0.86588666   0.50024023   0.00006828 1.0
  0.86614536   0.49979217   0.00005933 1.0
  0.86640451   0.49934276   0.00018651 1.0
  0.86653395   0.49911807   0.00024887 1.0
  0.86652136   0.49913994   0.00024396 1.0
  0.86637592   0.49939236   0.00017106 1.0
  0.86610282   0.49986588   0.00003710 1.0
  0.86586071   0.50028514   0.00008069 1.0
  0.86572194   0.50052523   0.00014955 1.0
  0.86568033   0.50059718   0.00016991 1.0
  0.86573626   0.50050046   0.00014104 1.0
  0.86588766   0.50023850   0.00006828 1.0
  0.86600973   0.50002715   0.00000780 1.0
  0.86607921   0.49990680   0.00002512 1.0
  0.86610382   0.49986414   0.00003898 1.0
  0.86609052   0.49988720   0.00003161 1.0
  0.86603529   0.49998288   0.00000546 1.0
  0.86598414   0.50007147   0.00001999 1.0
  0.86596431   0.50010580   0.00002988 1.0
  0.86595316   0.50012511   0.00003562 1.0
  0.86594577   0.50013791   0.00003853 1.0
  0.86593924   0.50014921   0.00004129 1.0
  0.86593924   0.50014921   0.00004129 1.0
  0.86591689   0.50018790   0.00005780 1.0
  0.86594076   0.50014658   0.00004785 1.0
  0.86596838   0.50009876   0.00003232 1.0
  0.86601507   0.50001790   0.00000545 1.0
  0.86610147   0.49986823   0.00004287 1.0
  0.86631431   0.49949925   0.00015940 1.0
  0.86652865   0.49912726   0.00028005 1.0
  0.86659070   0.49901951   0.00031325 1.0
  0.86649577   0.49918434   0.00026099 1.0
  0.86624540   0.49961874   0.00012184 1.0
  0.86583576   0.50032831   0.00010509 1.0
  0.86542450   0.50103925   0.00033490 1.0
  0.86522314   0.50138679   0.00044750 1.0
  0.86523749   0.50136204   0.00043769 1.0
  0.86547315   0.50095521   0.00030632 1.0
  0.86590198   0.50021372   0.00006698 1.0
  0.86628592   0.49954848   0.00014464 1.0
  0.86650507   0.49916821   0.00026792 1.0
  0.86656681   0.49906098   0.00030401 1.0
  0.86648018   0.49921141   0.00025464 1.0
  0.86624341   0.49962220   0.00012212 1.0
  0.86605028   0.49995691   0.00001415 1.0
  0.86594454   0.50014002   0.00004648 1.0
  0.86589998   0.50021718   0.00006929 1.0
  0.86592161   0.50017974   0.00005630 1.0
  0.86600880   0.50002875   0.00001063 1.0
  0.86609037   0.49988746   0.00003685 1.0
  0.86612207   0.49983252   0.00005322 1.0
  0.86614049   0.49980061   0.00006370 1.0
  0.86614953   0.49978494   0.00007033 1.0
  0.86616172   0.49976382   0.00007184 1.0
  0.86616172   0.49976382   0.00007184 1.0
  0.86607379   0.49991610   0.00029438 1.0
  0.86606981   0.49992303   0.00024148 1.0
  0.86605288   0.49995238   0.00015984 1.0
  0.86603164   0.49998921   0.00002759 1.0
  0.86598662   0.50006712   0.00021555 1.0
  0.86588080   0.50024972   0.00080980 1.0
  0.86577168   0.50043721   0.00141338 1.0
  0.86574150   0.50048891   0.00158430 1.0
  0.86578843   0.50040849   0.00131941 1.0
  0.86591544   0.50019003   0.00061842 1.0
  0.86611801   0.49983928   0.00053296 1.0
  0.86632390   0.49947978   0.00168592 1.0
  0.86642423   0.49930350   0.00225064 1.0
  0.86641602   0.49931795   0.00220574 1.0
  0.86629919   0.49952309   0.00154850 1.0
  0.86608616   0.49989464   0.00034097 1.0
  0.86589675   0.50022225   0.00072798 1.0
  0.86578640   0.50041194   0.00134510 1.0
  0.86575290   0.50046937   0.00152742 1.0
  0.86579780   0.50039240   0.00127523 1.0
  0.86591744   0.50018657   0.00061423 1.0
  0.86601404   0.50001968   0.00006871 1.0
  0.86606557   0.49993037   0.00023082 1.0
  0.86608846   0.49989064   0.00034934 1.0
  0.86607586   0.49991251   0.00028770 1.0
  0.86603330   0.49998632   0.00004753 1.0
  0.86599273   0.50005656   0.00018160 1.0
  0.86597684   0.50008403   0.00027200 1.0
  0.86596833   0.50009873   0.00032110 1.0
  0.86596254   0.50010875   0.00035131 1.0
  0.86595867   0.50011544   0.00037117 1.0
  0.86595867   0.50011544   0.00037117 1.0
  0.86612421   0.49982882   0.00002931 1.0
  0.86610756   0.49985767   0.00002457 1.0
  0.86608005   0.49990533   0.00001616 1.0
  0.86603291   0.49998699   0.00000316 1.0
  0.86595306   0.50012527   0.00002192 1.0
  0.86575132   0.50047442   0.00008214 1.0
  0.86554580   0.50082976   0.00014363 1.0
  0.86548752   0.50093047   0.00016023 1.0
  0.86557678   0.50077622   0.00013338 1.0
  0.86581513   0.50036402   0.00006279 1.0
  0.86620619   0.49968673   0.00005500 1.0
  0.86659702   0.49900859   0.00017236 1.0
  0.86678679   0.49867887   0.00022967 1.0
  0.86677121   0.49870595   0.00022476 1.0
  0.86655056   0.49908928   0.00015792 1.0
  0.86614105   0.49979963   0.00003407 1.0
  0.86577886   0.50042678   0.00007478 1.0
  0.86556846   0.50079060   0.00013873 1.0
  0.86550849   0.50089423   0.00015662 1.0
  0.86559343   0.50074744   0.00013107 1.0
  0.86581713   0.50036056   0.00006337 1.0
  0.86600142   0.50004154   0.00000722 1.0
  0.86610283   0.49986588   0.00002339 1.0
  0.86614536   0.49979217   0.00003594 1.0
  0.86612244   0.49983189   0.00002930 1.0
  0.86604057   0.49997373   0.00000474 1.0
  0.86596526   0.50010415   0.00001794 1.0
  0.86593291   0.50016017   0.00002803 1.0
  0.86591592   0.50018958   0.00003232 1.0
  0.86590801   0.50020327   0.00003581 1.0
  0.86589455   0.50022658   0.00003798 1.0
  0.86589455   0.50022658   0.00003798 1.0
  0.86592636   0.50017150   0.00010900 1.0
  0.86594187   0.50014465   0.00009184 1.0
  0.86597001   0.50009593   0.00005969 1.0
  0.86601681   0.50001488   0.00001091 1.0
  0.86609871   0.49987301   0.00008092 1.0
  0.86630403   0.49951700   0.00030445 1.0
  0.86651327   0.49915375   0.00053122 1.0
  0.86656770   0.49905918   0.00059446 1.0
  0.86648010   0.49921137   0.00049514 1.0
  0.86623939   0.49962913   0.00023212 1.0
  0.86584307   0.50031564   0.00020094 1.0
  0.86544271   0.50100749   0.00063401 1.0
  0.86525092   0.50133833   0.00084563 1.0
  0.86526660   0.50131130   0.00083004 1.0
  0.86549039   0.50092520   0.00058147 1.0
  0.86590728   0.50020452   0.00012790 1.0
  0.86627659   0.49956460   0.00027399 1.0
  0.86648739   0.49919870   0.00050697 1.0
  0.86654912   0.49909146   0.00057540 1.0
  0.86646251   0.49924191   0.00047984 1.0
  0.86623739   0.49963259   0.00023183 1.0
  0.86604797   0.49996091   0.00002627 1.0
  0.86594554   0.50013829   0.00008719 1.0
  0.86590628   0.50020625   0.00013165 1.0
  0.86592591   0.50017227   0.00010769 1.0
  0.86600980   0.50002703   0.00001781 1.0
  0.86608760   0.49989224   0.00006792 1.0
  0.86611905   0.49983776   0.00010208 1.0
  0.86613533   0.49980954   0.00012032 1.0
  0.86614674   0.49978976   0.00013166 1.0
  0.86615082   0.49978269   0.00014038 1.0
  0.86615082   0.49978269   0.00014038 1.0
  0.86610328   0.49986502   0.00026672 1.0
  0.86609274   0.49988330   0.00021884 1.0
  0.86606998   0.49992276   0.00014474 1.0
  0.86603216   0.49998830   0.00002487 1.0
  0.86596692   0.50010125   0.00019556 1.0
  0.86580242   0.50038549   0.00073369 1.0
  0.86563734   0.50066990   0.00128057 1.0
  0.86559054   0.50075039   0.00143474 1.0
  0.86566208   0.50062733   0.00119555 1.0
  0.86585527   0.50029426   0.00056111 1.0
  0.86617318   0.49974372   0.00048214 1.0
  0.86648619   0.49919871   0.00152512 1.0
  0.86664039   0.49892914   0.00203714 1.0
  0.86662917   0.49894878   0.00199643 1.0
  0.86645047   0.49926107   0.00140183 1.0
  0.86611709   0.49984106   0.00030921 1.0
  0.86582526   0.50034606   0.00065725 1.0
  0.86565506   0.50063944   0.00121647 1.0
  0.86560394   0.50072739   0.00138105 1.0
  0.86567477   0.50060551   0.00115253 1.0
  0.86585527   0.50029426   0.00055562 1.0
  0.86600673   0.50003234   0.00006164 1.0
  0.86608950   0.49988892   0.00020874 1.0
  0.86612040   0.49983533   0.00031585 1.0
  0.86610380   0.49986413   0.00026013 1.0
  0.86603858   0.49997717   0.00004351 1.0
  0.86597552   0.50008636   0.00016474 1.0
  0.86595097   0.50012884   0.00024669 1.0
  0.86593749   0.50015215   0.00029031 1.0
  0.86592980   0.50016545   0.00031855 1.0
  0.86591971   0.50018292   0.00033526 1.0
  0.86591971   0.50018292   0.00033526 1.0
  0.86605006   0.49995729   0.00002931 1.0
  0.86604655   0.49996337   0.00002457 1.0
  0.86604038   0.49997406   0.00001616 1.0
  0.86602663   0.49999787   0.00000316 1.0
  0.86600661   0.50003256   0.00002192 1.0
  0.86595421   0.50012328   0.00008214 1.0
  0.86589997   0.50021718   0.00014349 1.0
  0.86588434   0.50024423   0.00016038 1.0
  0.86590828   0.50020279   0.00013396 1.0
  0.86597048   0.50009511   0.00006222 1.0
  0.86607390   0.49991599   0.00005384 1.0
  0.86617427   0.49974204   0.00017164 1.0
  0.86622378   0.49965619   0.00022851 1.0
  0.86622178   0.49965966   0.00022361 1.0
  0.86616066   0.49976564   0.00015735 1.0
  0.86605628   0.49994651   0.00003407 1.0