# vtk DataFile Version 3.0
trk2vtk output
ASCII
DATASET POLYDATA
POINTS 3197 float
 12.56610394  28.81062889   1.00090528
 12.52950668  28.78451347   1.00092256
 12.44284534  28.70815849   1.00095868
 12.34479141  28.58547783   1.00099123
 12.26858521  28.43373871   1.00099719
 12.22913074  28.28502655   1.00095427
 12.21857738  28.15630531   1.00081944
 12.22877121  28.02806282   1.00058424
 12.25976276  27.90298653   1.00032151
 12.31112862  27.78458786   1.00010228
 12.38178158  27.67642593   1.00000000
 12.46993446  27.58197021   1.00008941
 12.57285595  27.50411797   1.00037146
 12.68713284  27.44474411   1.00074732
 12.80928802  27.40497398   1.00111520
 12.93595982  27.38525963   1.00137353
 13.06401634  27.38554955   1.00142992
 13.19046879  27.40593719   1.00130689
 13.31217575  27.44632912   1.00108111
 13.42586613  27.50608444   1.00082481
 13.52824497  27.58396149   1.00061095
 13.61615086  27.67804718   1.00050771
 13.68708229  27.78556633   1.00049591
 13.73919010  27.90335083   1.00053442
 13.77117538  28.02807236   1.00059271
 13.78233051  28.15629959   1.00064111
 13.77241230  28.28527451   1.00064898
 13.73326111  28.43442535   1.00061297
 13.65709496  28.58669662   1.00055265
 13.55887890  28.70984840   1.00048745
 13.47199917  28.78650665   1.00043511
 13.43529797  28.81272316   1.00041342
 12.64200306  28.69703865   2.31114149
 12.61174679  28.67557144   2.31117082
 12.54008007  28.61271286   2.31123257
 12.45897770  28.51154709   2.31128788
 12.39601898  28.38626480   2.31129813
 12.36368942  28.26342392   2.31122518
 12.35577869  28.15717506   2.31099391
 12.36555099  28.05168533   2.31059289
 12.39251232  27.94930267   2.31014347
 12.43580055  27.85275650   2.30976892
 12.49414253  27.76454353   2.30959320
 12.56592274  27.68687248   2.30974388
 12.64930820  27.62173462   2.31022143
 12.74224949  27.57096863   2.31085920
 12.84235668  27.53610420   2.31148434
 12.94693851  27.51828957   2.31192303
 13.05307007  27.51819420   2.31201982
 13.15772438  27.53579140   2.31181431
 13.25797653  27.57045364   2.31143355
 13.35110950  27.62109566   2.31100130
 13.43467140  27.68622589   2.31064081
 13.50653076  27.76401520   2.31046700
 13.56478405  27.85243797   2.31044769
 13.60783005  27.94918442   2.31051326
 13.63446903  28.05168152   2.31061220
 13.64392757  28.15717697   2.31069374
 13.63581085  28.26334190   2.31070757
 13.60338211  28.38603973   2.31064534
 13.54041100  28.51115036   2.31054354
 13.45936108  28.61216164   2.31043196
 13.38776588  28.67492294   2.31034207
 13.35754299  28.69635582   2.31030536
 12.84609795  28.39158821   1.99712002
 12.83309841  28.38234901   1.99718130
 12.80230808  28.35531044   1.99731016
 12.76746464  28.31181335   1.99742579
 12.74040890  28.25796509   1.99744749
 12.72648430  28.20517159   1.99729443
 12.72299194  28.15950012   1.99681139
 12.72703552  28.11411476   1.99597263
 12.73846531  28.07000542   1.99503279
 12.75696945  28.02836800   1.99424994
 12.78204536  27.99032784   1.99388242
 12.81301308  27.95690536   1.99419856
 12.84903717  27.92900658   1.99519825
 12.88914776  27.90738678   1.99653327
 12.93226242  27.89263344   1.99784112
 12.97721481  27.88515282   1.99875975
 13.02278709  27.88515091   1.99896228
 13.06774044  27.89262772   1.99853063
 13.11085796  27.90737724   1.99773347
 13.15097237  27.92899513   1.99682760
 13.18700027  27.95689392   1.99607193
 13.21796894  27.99031639   1.99570799
 13.24304295  28.02836227   1.99566698
 13.26154137  28.07000351   1.99580371
 13.27296543  28.11411476   1.99601066
 13.27700233  28.15950012   1.99618113
 13.27350521  28.20516968   1.99620974
 13.25957870  28.25795937   1.99608088
 13.23252296  28.31180382   1.99586701
 13.19768143  28.35529709   1.99563384
 13.16689301  28.38233566   1.99544668
 13.15389347  28.39157104   1.99536967
 12.39759350  29.06282234   2.18529105
 12.34669876  29.02667618   2.18528223
 12.22615528  28.92086029   2.18526292
 12.08974361  28.75061226   2.18524575
 11.98382759  28.53982353   2.18524218
 11.92935848  28.33316040   2.18526554
 11.91580582  28.15438843   2.18533659
 11.93183708  27.97678185   2.18546104
 11.97678471  27.80425644   2.18560028
 12.04934978  27.64145088   2.18571639
 12.14750957  27.49270058   2.18577075
 12.26858234  27.36192513   2.18572378
 12.40936279  27.25259209   2.18557572
 12.56616402  27.16770744   2.18537712
 12.73482037  27.10966492   2.18518305
 12.91078091  27.08015633   2.18504667
 13.08922482  27.08009911   2.18501663
 13.26522923  27.10947227   2.18508077
 13.43397617  27.16739273   2.18519974
 13.59089375  27.25220108   2.18533421
 13.73178196  27.36152840   2.18544674
 13.85290432  27.49237823   2.18550110
 13.95100880  27.64125443   2.18550706
 14.02342701  27.80418205   2.18548679
 14.06817627  27.97677994   2.18545604
 14.08401680  28.15439034   2.18543053
 14.07033730  28.33311081   2.18542647
 14.01580811  28.53968620   2.18544531
 13.90988350  28.75036812   2.18547726
 13.77350426  28.92052460   2.18551183
 13.65300369  29.02627945   2.18553948
 13.60212994  29.06240654   2.18555093
 11.97600651  29.69377136   2.29444599
 11.88949585  29.63232613   2.29437089
 11.68459511  29.45245361   2.29421306
 11.45272255  29.16305733   2.29407072
 11.27268314  28.80475235   2.29404402
 11.18009090  28.45346260   2.29423213
 11.15703487  28.14958000   2.29482532
 11.18425179  27.84767342   2.29585481
 11.26062393  27.55438614   2.29700851
 11.38395119  27.27761650   2.29796958
 11.55080605  27.02474213   2.29842043
 11.75663376  26.80243874   2.29803181
 11.99597168  26.61661530   2.29680395
 12.26253986  26.47237015   2.29516459
 12.54924488  26.37375450   2.29355812
 12.84834576  26.32363510   2.29242992
 13.15165806  26.32354355   2.29218197
 13.45082855  26.37345314   2.29271197
 13.73767376  26.47187424   2.29369187
 14.00442600  26.61599922   2.29480410
 14.24393463  26.80181694   2.29573274
 14.44983959  27.02423477   2.29618025
 14.61660957  27.27730942   2.29623008
 14.73970699  27.55426979   2.29606271
 14.81576824  27.84766960   2.29580832
 14.84268665  28.14958191   2.29559875
 14.81943417  28.45338631   2.29556370
 14.72674656  28.80453873   2.29572225
 14.54669476  29.16267776   2.29598451
 14.31487274  29.45192909   2.29627109
 14.11003876  29.63170815   2.29650116
 14.02356052  29.69312096   2.29659557
 12.70067692  28.60922623   1.95258641
 12.67539597  28.59125519   1.95262492
 12.61552048  28.53866005   1.95270550
 12.54776382  28.45406151   1.95277858
 12.49514675  28.34933472   1.95279193
 12.46805477  28.24666595   1.95269561
 12.46122646  28.15784264   1.95239282
 12.46903038  28.06955719   1.95186627
 12.49119949  27.98373413   1.95127654
 12.52714825  27.90270424   1.95078564
 12.57591534  27.82867241   1.95055497
 12.63618660  27.76366043   1.95075357
 12.70631886  27.70944214   1.95138085
 12.78438854  27.66747475   1.95221841
 12.86827183  27.63887596   1.95303929
 12.95569611  27.62439728   1.95361567
 13.04430485  27.62440872   1.95374262
 13.13172054  27.63891220   1.95347202
 13.21558666  27.66753387   1.95297170
 13.29363537  27.70951653   1.95240319
 13.36374569  27.76373672   1.95192897
 13.42400742  27.82873344   1.95170033
 13.47278595  27.90274239   1.95167518
 13.50876236  27.98374939   1.95176065
 13.53096867  28.06955719   1.95189047
 13.53880882  28.15784264   1.95199764
 13.53200436  28.24667549   1.95201552
 13.50492477  28.34936142   1.95193446
 13.45230865  28.45410728   1.95180058
 13.38454628  28.53872490   1.95165443
 13.32466125  28.59132957   1.95153689
 13.29937649  28.60930252   1.95148849
 12.94395924  28.24512863   2.36426973
 12.93920517  28.24179077   2.36434627
 12.92793941  28.23199081   2.36450768
 12.91518593  28.21616936   2.36465240
 12.90530682  28.19653320   2.36467957
 12.90030956  28.17726326   2.36448741
 12.89929771  28.16061783   2.36388302
 12.90121460  28.14419556   2.36283350
 12.90583134  28.12839890   2.36165643
 12.91286469  28.11361122   2.36067653
 12.92201138  28.10009384   2.36021662
 12.93297672  28.08800888   2.36061192
 12.94559383  28.07755280   2.36186290
 12.95976067  28.06909943   2.36353326
 12.97523785  28.06305695   2.36516953
 12.99163055  28.05982590   2.36631942
 13.00838089  28.05971718   2.36657286
 13.02485561  28.06269264   2.36603332
 13.04050255  28.06850243   2.36503625
 13.05488968  28.07681274   2.36390328
 13.06771183  28.08725739   2.36295843
 13.07876968  28.09948158   2.36250257
 13.08781147  28.11324120   2.36245203
 13.09456539  28.12826157   2.36262298
 13.09880543  28.14419174   2.36288190
 13.10035992  28.16061974   2.36309576
 13.09910774  28.17716789   2.36313128
 13.09399605  28.19627190   2.36296916
 13.08410263  28.21570778   2.36270213
 13.07141018  28.23134995   2.36241055
 13.06022739  28.24103546   2.36217594
 13.05551243  28.24433517   2.36207962
 12.22077179  29.32745552   1.72062695
 12.15496635  29.28066063   1.72059047
 11.99911594  29.14372253   1.72051239
 11.82275677  28.92347527   1.72044277
 11.68578911  28.65085411   1.72042990
 11.61522961  28.38359642   1.72052228
 11.59733295  28.15237045   1.72081316
 11.61744499  27.92248726   1.72131848
 11.67494774  27.69894409   1.72188449
 11.76839638  27.48782730   1.72235620
 11.89534664  27.29494476   1.72257745
 12.05239582  27.12566376   1.72238731
 12.23519993  26.98465347   1.72178519
 12.43864346  26.87566948   1.72098160
 12.65711784  26.80153084   1.72019434
 12.88469505  26.76407242   1.71964109
 13.11529922  26.76415062   1.71951914
 13.34281731  26.80179024   1.71977842
 13.56117058  26.87609673   1.72025847
 13.76445675  26.98518372   1.72080326
 13.94711494  27.12619972   1.72125769
 14.10409737  27.29538155   1.72147703
 14.23112202  27.48809052   1.72150123
 14.32477283  27.69904327   1.72141874
 14.38254356  27.92248917   1.72129428
 14.40291500  28.15236855   1.72119153
 14.38519096  28.38366508   1.72117472
 14.31471252  28.65104103   1.72125232
 14.17775631  28.92380524   1.72138119
 14.00135231  29.14418030   1.72152150
[...]
POINT_DATA 3197
COLOR_SCALARS tangents 4
  0.81400134   0.58086287   0.00038446 1.0
  0.75031400   0.66108154   0.00031273 1.0
  0.62434322   0.78115012   0.00020722 1.0
  0.44879898   0.89363274   0.00003510 1.0
  0.25643599   0.96656118   0.00027893 1.0
  0.08171195   0.99665544   0.00104392 1.0
  0.07923860   0.99685400   0.00182826 1.0
  0.24050761   0.97064511   0.00203895 1.0
  0.39799669   0.91738528   0.00169862 1.0
  0.54687881   0.83721141   0.00079170 1.0
  0.68229415   0.73107743   0.00069200 1.0
  0.79753229   0.60327231   0.00218558 1.0
  0.88737229   0.46104436   0.00291865 1.0
  0.95087058   0.30957541   0.00286362 1.0
  0.98810278   0.15378175   0.00201508 1.0
  0.99999734   0.00226397   0.00044032 1.0
  0.98725037   0.15917220   0.00096048 1.0
  0.94909525   0.31498429   0.00176070 1.0
  0.88517854   0.46524722   0.00199552 1.0
  0.79590215   0.60542300   0.00166258 1.0
  0.68270216   0.73069632   0.00080175 1.0
  0.55067345   0.83472076   0.00009162 1.0
  0.40457626   0.91450421   0.00029896 1.0
  0.24841471   0.96865367   0.00045274 1.0
  0.08666766   0.99623721   0.00037603 1.0
  0.07667395   0.99705622   0.00006082 1.0
  0.25389262   0.96723238   0.00023347 1.0
  0.44735696   0.89435543   0.00035429 1.0
  0.62351222   0.78181350   0.00041396 1.0
  0.74983922   0.66161994   0.00045167 1.0
  0.81371909   0.58125813   0.00048103 1.0
  0.81371909   0.58125813   0.00048103 1.0
  0.81557029   0.57865748   0.00079048 1.0
  0.75179515   0.65939642   0.00064777 1.0
  0.62549296   0.78022969   0.00042660 1.0
  0.44902464   0.89351937   0.00007312 1.0
  0.25451543   0.96706854   0.00057435 1.0
  0.07424903   0.99723737   0.00217063 1.0
  0.09224185   0.99572944   0.00378527 1.0
  0.25465461   0.96702276   0.00424484 1.0
  0.40912347   0.91247216   0.00353998 1.0
  0.55164092   0.83408006   0.00166143 1.0
  0.67870738   0.73440742   0.00142474 1.0
  0.78804859   0.61559649   0.00451319 1.0
  0.87759868   0.47935820   0.00602214 1.0
  0.94434995   0.32888964   0.00589713 1.0
  0.98579173   0.16792133   0.00413511 1.0
  0.99999918   0.00089858   0.00091206 1.0
  0.98615449   0.16581788   0.00193658 1.0
  0.94509772   0.32676815   0.00358945 1.0
  0.87851323   0.47770062   0.00407739 1.0
  0.78871761   0.61474625   0.00340255 1.0
  0.67855368   0.73454899   0.00164123 1.0
  0.55014638   0.83506822   0.00018238 1.0
  0.40651355   0.91364454   0.00061918 1.0
  0.25154298   0.96784568   0.00093429 1.0
  0.08930006   0.99600447   0.00076983 1.0
  0.07623142   0.99709014   0.00012987 1.0
  0.25552363   0.96680269   0.00049032 1.0
  0.44958682   0.89323634   0.00072684 1.0
  0.62582836   0.77996033   0.00086157 1.0
  0.75197478   0.65919120   0.00094406 1.0
  0.81570577   0.57846617   0.00099097 1.0
  0.81570577   0.57846617   0.00099097 1.0
  0.81509488   0.57931474   0.00384197 1.0
  0.75139823   0.65984150   0.00314479 1.0
  0.62519441   0.78046630   0.00207480 1.0
  0.44895981   0.89355188   0.00036002 1.0
  0.25503305   0.96692827   0.00280342 1.0
  0.07624008   0.99703373   0.01054495 1.0
  0.08872780   0.99588586   0.01840474 1.0
  0.25078606   0.96782287   0.02062158 1.0
  0.40605329   0.91368792   0.01717874 1.0
  0.55035648   0.83489082   0.00806624 1.0
  0.67963955   0.73351342   0.00693830 1.0
  0.79043608   0.61215167   0.02193505 1.0
  0.87989385   0.47426695   0.02928604 1.0
  0.94575043   0.32362492   0.02868850 1.0
  0.98623426   0.16412130   0.02015424 1.0
  0.99999012   0.00004185   0.00444425 1.0
  0.98640448   0.16406244   0.00947178 1.0
  0.94602735   0.32361451   0.01749006 1.0
  0.88013386   0.47430935   0.01987536 1.0
  0.79054899   0.61217428   0.01658138 1.0
  0.67964549   0.73349724   0.00798724 1.0
  0.55028727   0.83497491   0.00089998 1.0
  0.40597545   0.91387906   0.00300081 1.0
  0.25070898   0.96805185   0.00454160 1.0
  0.08859685   0.99606054   0.00374124 1.0
  0.07635097   0.99708081   0.00062463 1.0
  0.25508324   0.96691622   0.00236035 1.0
  0.44898241   0.89353355   0.00354897 1.0
  0.62520283   0.78045110   0.00418411 1.0
  0.75137384   0.65986096   0.00456750 1.0
  0.81520434   0.57915331   0.00482927 1.0
  0.81520434   0.57915331   0.00482927 1.0
  0.81530054   0.57903800   0.00014131 1.0
  0.75152419   0.65970552   0.00012040 1.0
  0.62529088   0.78039177   0.00007869 1.0
  0.44898179   0.89354091   0.00001516 1.0
  0.25486118   0.96697764   0.00010933 1.0
  0.07559287   0.99713869   0.00039629 1.0
  0.08989730   0.99595080   0.00069789 1.0
  0.25211194   0.96769776   0.00078098 1.0
  0.40710816   0.91337972   0.00065141 1.0
  0.55078195   0.83464912   0.00030501 1.0
  0.67936084   0.73380432   0.00026355 1.0
  0.78979453   0.61337094   0.00083062 1.0
  0.87940731   0.47606884   0.00111385 1.0
  0.94557066   0.32541502   0.00108807 1.0
  0.98622787   0.16539046   0.00076436 1.0
  0.99999993   0.00032066   0.00016835 1.0
  0.98635830   0.16461218   0.00035942 1.0
  0.94583501   0.32464703   0.00066684 1.0
  0.87973431   0.47546501   0.00075387 1.0
  0.79003748   0.61305822   0.00063104 1.0
  0.67930262   0.73385820   0.00030487 1.0
  0.55024115   0.83500579   0.00003343 1.0
  0.40616625   0.91379919   0.00011366 1.0
  0.25097088   0.96799462   0.00017249 1.0
  0.08883435   0.99604640   0.00014307 1.0
  0.07631811   0.99708352   0.00002261 1.0
  0.25522532   0.96688160   0.00008816 1.0
  0.44919255   0.89343496   0.00013548 1.0
  0.62540518   0.78030016   0.00015853 1.0
  0.75159643   0.65962321   0.00017250 1.0
  0.81533210   0.57899355   0.00018341 1.0
  0.81533210   0.57899355   0.00018341 1.0
  0.81528192   0.57906380   0.00070776 1.0
  0.75151344   0.65971753   0.00057888 1.0
  0.62527942   0.78040086   0.00038383 1.0
  0.44898215   0.89354072   0.00006659 1.0
  0.25487314   0.96697436   0.00051781 1.0
  0.07565392   0.99713224   0.00194642 1.0
  0.08978548   0.99595534   0.00339617 1.0
  0.25199502   0.96772104   0.00380674 1.0
  0.40701407   0.91341638   0.00317178 1.0
  0.55074450   0.83467256   0.00148814 1.0
  0.67939191   0.73377448   0.00128276 1.0
  0.78987047   0.61326032   0.00405221 1.0
  0.87948069   0.47590384   0.00540871 1.0
  0.94561166   0.32525453   0.00529845 1.0
  0.98624275   0.16526162   0.00372007 1.0
  0.99999962   0.00030184   0.00081749 1.0
  0.98636683   0.16455221   0.00174743 1.0
  0.94586595   0.32454147   0.00323120 1.0
  0.87979083   0.47534686   0.00366829 1.0
  0.79009414   0.61297787   0.00306341 1.0
  0.67934072   0.73382151   0.00147647 1.0
  0.55024615   0.83500249   0.00016441 1.0
  0.40614921   0.91380661   0.00055222 1.0
  0.25094547   0.96800086   0.00083931 1.0
  0.08880739   0.99604858   0.00069140 1.0
  0.07631449   0.99708379   0.00011503 1.0
  0.25521186   0.96688506   0.00043656 1.0
  0.44917282   0.89344465   0.00065426 1.0
  0.62538706   0.78031432   0.00077311 1.0
  0.75157670   0.65964517   0.00084419 1.0
  0.81532362   0.57900484   0.00089014 1.0
  0.81532362   0.57900484   0.00089014 1.0
  0.81505407   0.57938357   0.00124138 1.0
  0.75130583   0.65995343   0.00101117 1.0
  0.62513260   0.78051828   0.00067420 1.0
  0.44894431   0.89355973   0.00011392 1.0
  0.25514389   0.96690267   0.00090712 1.0
  0.07664858   0.99705238   0.00339887 1.0
  0.08804927   0.99609840   0.00594088 1.0
  0.25009700   0.96819793   0.00665292 1.0
  0.40552426   0.91406751   0.00553770 1.0
  0.55010217   0.83509331   0.00260200 1.0
  0.67986161   0.73333701   0.00224024 1.0
  0.79112771   0.61161007   0.00707603 1.0
  0.88076185   0.47346517   0.00944918 1.0
  0.94646197   0.32268243   0.00926200 1.0
  0.98654095   0.16338498   0.00650414 1.0
  0.99999897   0.00012915   0.00143279 1.0
  0.98650948   0.16367564   0.00305385 1.0
  0.94638838   0.32298167   0.00564588 1.0
  0.88065815   0.47370886   0.00641474 1.0
  0.79103319   0.61174984   0.00535042 1.0
  0.67988902   0.73331048   0.00257962 1.0
  0.55031266   0.83495862   0.00028377 1.0
  0.40588669   0.91392290   0.00096431 1.0
  0.25053730   0.96810584   0.00146465 1.0
  0.08845646   0.99607931   0.00120913 1.0
  0.07637480   0.99707916   0.00020070 1.0
  0.25499490   0.96694210   0.00076332 1.0
  0.44887225   0.89359521   0.00114207 1.0
  0.62507848   0.78056075   0.00134818 1.0
  0.75129818   0.65996126   0.00147462 1.0
  0.81506595   0.57936608   0.00156016 1.0
  0.81506595   0.57936608   0.00156016 1.0
  0.81835021   0.57456886   0.01317404 1.0
  0.75444043   0.65627951   0.01080920 1.0
  0.62756499   0.77853161   0.00712129 1.0
  0.44943323   0.89331307   0.00123649 1.0
  0.25101364   0.96793542   0.00965253 1.0
  0.06063654   0.99750258   0.03621905 1.0
  0.11570473   0.99126143   0.06334978 1.0
  0.27981035   0.95740107   0.07133979 1.0
  0.42874833   0.90144701   0.05973409 1.0
  0.56019547   0.82788141   0.02816748 1.0
  0.67177146   0.74036250   0.02421719 1.0
  0.76773044   0.63623556   0.07612021 1.0
  0.85437183   0.50980491   0.10073593 1.0
  0.92703982   0.36192768   0.09800780 1.0
  0.97880816   0.19292583   0.06866007 1.0
  0.99986450   0.00648967   0.01512833 1.0
  0.98356820   0.17764010   0.03221150 1.0
  0.93579485   0.34746524   0.05963147 1.0
  0.86391740   0.49901738   0.06803221 1.0
  0.77406261   0.63053431   0.05703998 1.0
  0.67058573   0.74131677   0.02764467 1.0
  0.54916490   0.83570838   0.00306990 1.0
  0.41007771   0.91199152   0.01037933 1.0
  0.25717721   0.96623664   0.01570482 1.0
  0.09419570   0.99546935   0.01295913 1.0
  0.07545264   0.99714709   0.00214060 1.0
  0.25847027   0.96598443   0.00819775 1.0
  0.45360484   0.89111882   0.01224305 1.0
  0.63002387   0.77644087   0.01447365 1.0
  0.75580246   0.65460769   0.01585600 1.0
  0.81917947   0.57329307   0.01673486 1.0
  0.81917947   0.57329307   0.01673486 1.0
  0.81495574   0.57952303   0.00045176 1.0
  0.75121589   0.66005647   0.00037636 1.0
  0.62504368   0.78058974   0.00024674 1.0
  0.44893573   0.89356405   0.00004220 1.0
  0.25526642   0.96687070   0.00033423 1.0
  0.07716811   0.99701731   0.00125420 1.0
  0.08715495   0.99619236   0.00218983 1.0
  0.24912245   0.96846889   0.00245214 1.0
  0.40475895   0.91442114   0.00204315 1.0
  0.54977902   0.83530959   0.00095817 1.0
  0.68012447   0.73309619   0.00082342 1.0
  0.79180057   0.61077415   0.00260806 1.0
  0.88148114   0.47220640   0.00348180 1.0
  0.94695551   0.32134657   0.00341229 1.0
  0.98672032   0.16241074   0.00239876 1.0
  0.99999980   0.00033911   0.00052883 1.0
  0.98658953   0.16321715   0.00112432 1.0
  0.94668295   0.32215998   0.00208131 1.0
  0.88114588   0.47283862   0.00236138 1.0
  0.79155378   0.61109633   0.00196927 1.0
  0.68018321   0.73304154   0.00095039 1.0
  0.55034937   0.83493447   0.00010485 1.0
  0.40575503   0.91398180   0.00035741 1.0
  0.25031374   0.96816463   0.00053925 1.0
  0.08827200   0.99609631   0.00044527 1.0
  0.07640507   0.99707686   0.00007246 1.0
  0.25488679   0.96697086   0.00028066 1.0
  0.44871772   0.89367345   0.00042221 1.0
  0.62491949   0.78068905   0.00049705 1.0
  0.75114401   0.66013816   0.00054446 1.0
  0.81491455   0.57958084   0.00057550 1.0
  0.81491455   0.57958084   0.00057550 1.0
  0.81469339   0.57989192   0.00018778 1.0
  0.75096012   0.66034754   0.00015265 1.0
  0.62484636   0.78074773   0.00010204 1.0
  0.44889592   0.89358405   0.00001825 1.0
  0.25560060   0.96678246   0.00013819 1.0
  0.07845662   0.99691740   0.00051472 1.0
  0.08491135   0.99638811   0.00089544 1.0
  0.24667802   0.96909697   0.00100539 1.0
  0.40283754   0.91527112   0.00083203 1.0
  0.54895893   0.83584923   0.00039261 1.0
  0.68073575   0.73252899   0.00034031 1.0
  0.79344175   0.60864525   0.00107372 1.0
  0.88317119   0.46904860   0.00143282 1.0
  0.94808169   0.31802378   0.00140590 1.0
  0.98712086   0.15997321   0.00098659 1.0
  0.99999959   0.00087956   0.00021406 1.0
  0.98677771   0.16207879   0.00046556 1.0
  0.94737157   0.32013491   0.00086244 1.0
  0.88229245   0.47070062   0.00097921 1.0
  0.79279580   0.60948680   0.00081318 1.0
  0.68088958   0.73238599   0.00039229 1.0
  0.55044481   0.83487155   0.00004487 1.0
  0.40542094   0.91413010   0.00014460 1.0
  0.24977565   0.96830371   0.00022358 1.0
  0.08782045   0.99613630   0.00018288 1.0
  0.07648299   0.99707089   0.00003060 1.0
  0.25460750   0.96704447   0.00011448 1.0
  0.44832744   0.89386939   0.00017221 1.0
  0.62452200   0.78100719   0.00020521 1.0
  0.75077655   0.66055622   0.00022269 1.0
  0.81456285   0.58007526   0.00023502 1.0
  0.81456285   0.58007526   0.00023502 1.0
  0.81566124   0.57852975   0.00025030 1.0
  0.75185521   0.65932822   0.00020441 1.0
  0.62554978   0.78018424   0.00013818 1.0
  0.44903332   0.89351501   0.00002332 1.0
  0.25442640   0.96709212   0.00018429 1.0
  0.07390712   0.99726490   0.00068128 1.0
  0.09283611   0.99568068   0.00119632 1.0
  0.25531715   0.96685643   0.00134177 1.0
  0.40963097   0.91225064   0.00111649 1.0
  0.55186733   0.83393176   0.00052327 1.0
  0.67853976   0.73456353   0.00045153 1.0
  0.78762753   0.61615000   0.00143417 1.0
  0.87715808   0.48019791   0.00191445 1.0
  0.94406171   0.32976352   0.00187035 1.0
  0.98568866   0.16857091   0.00130779 1.0
  0.99999942   0.00103491   0.00028583 1.0
  0.98610814   0.16610347   0.00061854 1.0
  0.94492101   0.32729647   0.00114401 1.0
  0.87821938   0.47825625   0.00129781 1.0
  0.78840048   0.61516136   0.00109009 1.0
  0.67835921   0.73473023   0.00052122 1.0
  0.55012263   0.83508388   0.00006177 1.0
  0.40660099   0.91360582   0.00020012 1.0
  0.25168030   0.96781038   0.00029643 1.0
  0.08943248   0.99599286   0.00024081 1.0
  0.07621177   0.99709165   0.00004545 1.0
  0.25559499   0.96678393   0.00015769 1.0
  0.44969520   0.89318205   0.00022880 1.0
  0.62593087   0.77987850   0.00027169 1.0
  0.75207703   0.65907515   0.00030226 1.0
  0.81579512   0.57834092   0.00030716 1.0
  0.81579512   0.57834092   0.00030716 1.0
  0.22886456   0.53096579   0.81590217 1.0
  0.22666678   0.57086448   0.78913619 1.0
  0.23369118   0.68057431   0.69441129 1.0
  0.38398568   0.90551847   0.18053058 1.0
  0.41100230   0.47369757   0.77890161 1.0
  0.34334269   0.18798991   0.92020410 1.0
  0.31432244   0.19436363   0.92920621 1.0
  0.26843641   0.27583691   0.92296040 1.0
  0.17514586   0.39605054   0.90137001 1.0
  0.10061895   0.64339439   0.75889360 1.0
  0.62776647   0.30690805   0.71534377 1.0
  0.38075822   0.11686638   0.91725974 1.0
  0.26868364   0.23125985   0.93505507 1.0
  0.17861342   0.29129241   0.93981167 1.0
  0.09406472   0.32431270   0.94126144 1.0
  0.02873925   0.33209797   0.94280698 1.0
  0.08225890   0.32305312   0.94279911 1.0
  0.16165880   0.29583560   0.94146042 1.0
  0.24610041   0.24397274   0.93803619 1.0
  0.34268585   0.14950510   0.92747757 1.0
  0.50789485   0.10607930   0.85486257 1.0
  0.60016165   0.77213780   0.20882818 1.0
  0.13253347   0.80672545   0.57587232 1.0
  0.09210011   0.67378498   0.73316531 1.0
  0.18310511   0.69912861   0.69115244 1.0
  0.13755148   0.97536506   0.17246038 1.0
  0.02563809   0.84320817   0.53697548 1.0
  0.11026653   0.74217856   0.66106904 1.0
  0.23382338   0.68317091   0.69181221 1.0
  0.33774921   0.62944171   0.69980612 1.0
  0.40031177   0.58795791   0.70289117 1.0
  0.40031177   0.58795791   0.70289117 1.0
  0.81448128   0.58018980   0.00016720 1.0
  0.75075773   0.66057763   0.00014024 1.0
  0.62469176   0.78087144   0.00009234 1.0
  0.44886060   0.89360179   0.00001808 1.0
  0.25586048   0.96671371   0.00012591 1.0
  0.07947879   0.99683645   0.00046813 1.0
  0.08312833   0.99653851   0.00081939 1.0
  0.24474327   0.96958749   0.00091322 1.0
  0.40132436   0.91593568   0.00075950 1.0
  0.54830065   0.83628122   0.00035734 1.0
  0.68123409   0.73206559   0.00031297 1.0
  0.79473006   0.60696225   0.00098066 1.0
  0.88449691   0.46654420   0.00130944 1.0
  0.94896368   0.31538275   0.00128409 1.0
  0.98743405   0.15802906   0.00090277 1.0
  0.99999911   0.00132112   0.00019487 1.0
  0.98692850   0.16115814   0.00042766 1.0
  0.94791524   0.31852170   0.00079287 1.0
  0.88320252   0.46899094   0.00089436 1.0
  0.79376666   0.60822194   0.00074779 1.0
  0.68146519   0.73185044   0.00036133 1.0
  0.55050778   0.83483004   0.00004115 1.0
  0.40515904   0.91424621   0.00013332 1.0
  0.24935302   0.96841263   0.00020413 1.0
  0.08745633   0.99616834   0.00016712 1.0
  0.07654266   0.99706631   0.00002785 1.0
  0.25438614   0.96710272   0.00010307 1.0
  0.44802205   0.89402249   0.00015934 1.0
  0.62420519   0.78126042   0.00018437 1.0
  0.75047852   0.66089481   0.00020495 1.0
  0.81431497   0.58042319   0.00021390 1.0
  0.81431497   0.58042319   0.00021390 1.0
  0.81556319   0.57866788   0.00040852 1.0
  0.75178377   0.65940962   0.00034188 1.0
  0.62548567   0.78023562   0.00022235 1.0
  0.44902275   0.89352032   0.00003982 1.0
  0.25452667   0.96706571   0.00030053 1.0
  0.07429491   0.99723567   0.00113479 1.0
  0.09215695   0.99574253   0.00197802 1.0
  0.25457468   0.96705058   0.00221714 1.0
  0.40904704   0.91251143   0.00184695 1.0
  0.55161818   0.83409630   0.00086622 1.0
  0.67873156   0.73438607   0.00074987 1.0
  0.78812632   0.61550898   0.00236486 1.0
  0.87767894   0.47923871   0.00315266 1.0
  0.94440791   0.32876154   0.00309055 1.0
  0.98581315   0.16783254   0.00216225 1.0
  0.99999950   0.00087616   0.00047673 1.0
  0.98616400   0.16576950   0.00101904 1.0
  0.94513505   0.32667441   0.00188750 1.0
  0.87856770   0.47761303   0.00214230 1.0
  0.78878213   0.61467029   0.00178651 1.0
  0.67857957   0.73452639   0.00086509 1.0
  0.55014530   0.83506895   0.00009793 1.0
  0.40650544   0.91364830   0.00032606 1.0
  0.25151578   0.96785307   0.00048957 1.0
  0.08928978   0.99600561   0.00040129 1.0
  0.07623656   0.99708976   0.00006635 1.0
  0.25550912   0.96680661   0.00025230 1.0
  0.44957847   0.89324076   0.00038156 1.0
  0.62581240   0.77997348   0.00044785 1.0
  0.75196567   0.65920209   0.00049070 1.0
  0.81568043   0.57850252   0.00052282 1.0
  0.81568043   0.57850252   0.00052282 1.0
  0.81488407   0.57962353   0.00071842 1.0
  0.75113833   0.66014458   0.00058904 1.0
  0.62498390   0.78063754   0.00038959 1.0
  0.44892248   0.89357070   0.00006701 1.0
  0.25536353   0.96684497   0.00052678 1.0
  0.07754774   0.99698668   0.00197511 1.0
  0.08648801   0.99624693   0.00344594 1.0
  0.24839503   0.96865113   0.00386020 1.0
  0.40419209   0.91466847   0.00321521 1.0
  0.54953626   0.83546850   0.00150826 1.0
  0.68030641   0.73292667   0.00129595 1.0
  0.79228399   0.61013871   0.00410158 1.0
  0.88197748   0.47125968   0.00548121 1.0
  0.94728334   0.32035199   0.00537459 1.0
  0.98683427   0.16169065   0.00377563 1.0
  0.99999953   0.00049778   0.00083301 1.0
  0.98664462   0.16287803   0.00177053 1.0
  0.94688512   0.32155534   0.00327619 1.0
  0.88148645   0.47219468   0.00371807 1.0
  0.79192156   0.61061495   0.00310181 1.0
  0.68040004   0.73283937   0.00149502 1.0
  0.55037775   0.83491575   0.00016545 1.0
  0.40565777   0.91402487   0.00056123 1.0
  0.25015384   0.96820573   0.00084986 1.0
  0.08813757   0.99610807   0.00069999 1.0
  0.07642910   0.99707501   0.00011710 1.0
  0.25479864   0.96699403   0.00044320 1.0
  0.44860208   0.89373135   0.00066466 1.0
  0.62480236   0.78078256   0.00078153 1.0
  0.75103103   0.66026635   0.00085682 1.0
  0.81481373   0.57972215   0.00090099 1.0
  0.81481373   0.57972215   0.00090099 1.0
  0.81495610   0.57952267   0.00016701 1.0
  0.75121166   0.66006138   0.00014008 1.0
  0.62504569   0.78058816   0.00009223 1.0
  0.44893403   0.89356490   0.00001805 1.0
  0.25527089   0.96686956   0.00012575 1.0
  0.07717597   0.99701738   0.00046765 1.0
  0.08714274   0.99619550   0.00081898 1.0
  0.24910692   0.96847556   0.00091341 1.0
  0.40474618   0.91442875   0.00076346 1.0
  0.54977333   0.83531381   0.00035452 1.0
  0.68012086   0.73309994   0.00030681 1.0
  0.79181207   0.61076402   0.00097820 1.0
  0.88149635   0.47218904   0.00130277 1.0
  0.94696222   0.32134238   0.00127526 1.0
  0.98672659   0.16238791   0.00089765 1.0
  0.99999992   0.00034265   0.00019439 1.0