# vtk DataFile Version 3.0
trk2vtk output
ASCII
DATASET POLYDATA
POINTS 3197 float
  9.61932945  19.62383842   1.00090528
  9.44457340  19.43940926   1.00092256
  9.04240990  18.92509460   1.00095868
  8.61481476  18.14679909   1.00099123
  8.32286644  17.23199844   1.00099719
  8.22089005  16.36804771   1.00095427
  8.25687695  15.63908005   1.00081944
  8.40188789  14.92747211   1.00058424
  8.65291405  14.24579716   1.00032151
  9.00455856  13.60994053   1.00010228
  9.44898319  13.03493118   1.00000000
  9.97603512  12.53455734   1.00008941
 10.57322025  12.12065220   1.00037146
 11.22617817  11.80249500   1.00074732
 11.91949749  11.58693218   1.00111520
 12.63713932  11.47832680   1.00137353
 13.36282921  11.47861671   1.00142992
 14.08026981  11.58789635   1.00130689
 14.77317524  11.80409622   1.00108111
 15.42558670  12.12267017   1.00082481
 16.02226067  12.53664398   1.00061095
 16.54906845  13.03668880   1.00050771
 16.99374008  13.61106014   1.00049591
 17.34608078  14.24625874   1.00053442
 17.59806442  14.92748642   1.00059271
 17.74402618  15.63896370   1.00064111
 17.78067398  16.36808968   1.00064898
 17.67906380  17.23240662   1.00061297
 17.38724899  18.14769363   1.00055265
 16.95959282  18.92644882   1.00048745
 16.55728912  19.44108009   1.00043511
 16.38245773  19.62561989   1.00041342
  9.71592999  19.52723694   2.31114149
  9.54608250  19.34815598   2.31117082
  9.15520287  18.84866142   2.31123257
  8.73959637  18.09263420   2.31128788
  8.45591545  17.20387268   2.31129813
  8.35712624  16.36449242   2.31122518
  8.39298153  15.65641594   2.31099391
  8.53533554  14.96566105   2.31059289
  8.78067017  14.30450058   2.31014347
  9.12319946  13.68813515   2.30976892
  9.55493546  13.13065910   2.30959320
 10.06588936  12.64475727   2.30974388
 10.64438438  12.24154282   2.31022143
 11.27727222  11.93040085   2.31085920
 11.95007133  11.71866703   2.31148434
 12.64727974  11.61142349   2.31192303
 13.35272884  11.61132908   2.31201982
 14.05000401  11.71835136   2.31181431
 14.72293949  11.92987823   2.31143355
 15.35600662  12.24088478   2.31100130
 15.93466949  12.64407730   2.31064081
 16.44570351  13.13008499   2.31046700
 16.87735939  13.68776989   2.31044769
 17.21966171  14.30435085   2.31051326
 17.46468735  14.96565533   2.31061220
 17.60673141  15.65645409   2.31069374
 17.64237022  16.36447906   2.31070757
 17.54346275  17.20374107   2.31064534
 17.25973892  18.09234238   2.31054354
 16.84415054  18.84821892   2.31043196
 16.45331764  19.34761238   2.31034207
 16.28349495  19.52665710   2.31030536
  9.97569466  19.26747322   1.99712002
  9.81930065  19.10253906   1.99718130
  9.45938587  18.64252472   1.99731016
  9.07670498  17.94629097   1.99742579
  8.81547928  17.12785339   1.99744749
  8.72444248  16.35489273   1.99729443
  8.75725937  15.70281029   1.99681139
  8.88801765  15.06657410   1.99597263
  9.11361217  14.45747852   1.99503279
  9.42883778  13.88956642   1.99424994
  9.82642174  13.37593651   1.99388242
 10.29719353  12.92842960   1.99419856
 10.83029842  12.55736446   1.99519825
 11.41344357  12.27130127   1.99653327
 12.03318596  12.07684040   1.99784112
 12.67523098  11.97847176   1.99875975
 13.32476807  11.97846985   1.99896228
 13.96681499  12.07683277   1.99853063
 14.58656025  12.27128887   1.99773347
 15.16971207  12.55735016   1.99682760
 15.70281982  12.92841530   1.99607193
 16.17359352  13.37592506   1.99570799
 16.57117653  13.88955879   1.99566698
 16.88639641  14.45747471   1.99580371
 17.11198616  15.06657410   1.99601066
 17.24273872  15.70281219   1.99618113
 17.27555084  16.35489273   1.99620974
 17.18451118  17.12784958   1.99608088
 16.92328453  17.94628525   1.99586701
 16.54060364  18.64251518   1.99563384
 16.18069077  19.10252571   1.99544668
 16.02429771  19.26745987   1.99536967
  9.40485573  19.83831215   2.18529105
  9.21893024  19.64225769   2.18528223
  8.79105186  19.09543610   2.18526292
  8.33610535  18.26779175   2.18524575
  8.02556229  17.29485893   2.18524218
  7.91738224  16.37598419   2.18526554
  7.95652485  15.60083199   2.18533659
  8.11218262  14.84458160   2.18546104
  8.38057613  14.12067032   2.18560028
  8.75543785  13.44576168   2.18571639
  9.22806740  12.83534431   2.18577075
  9.78754520  12.30339718   2.18572378
 10.42103577  11.86212730   2.18557572
 11.11404419  11.52176571   2.18537712
 11.85065937  11.29025936   2.18518305
 12.61389923  11.17306995   2.18504667
 13.38610935  11.17301273   2.18501663
 14.14939117  11.29006767   2.18508077
 14.88608837  11.52144623   2.18519974
 15.57920647  11.86172485   2.18533421
 16.21279907  12.30298042   2.18544674
 16.77232552  12.83499432   2.18550110
 17.24490738  13.44553661   2.18550706
 17.61963081  14.12057877   2.18548679
 17.88783455  14.84457874   2.18545604
 18.04330254  15.60085487   2.18543053
 18.08231354  16.37597656   2.18542647
 17.97406006  17.29477882   2.18544531
 17.66349030  18.26761436   2.18547726
 17.20855713  19.09516525   2.18551183
 16.78070450  19.64192581   2.18553948
 16.59479523  19.83795738   2.18555093
  8.86827755  20.37488937   2.29444599
  8.65459728  20.14958000   2.29437089
  8.16284275  19.52114868   2.29421306
  7.63998032  18.56998062   2.29407072
  7.28308487  17.45182991   2.29404402
  7.15877724  16.39580536   2.29423213
  7.20381927  15.50496292   2.29482532
  7.38280392  14.63587570   2.29585481
  7.69134998  13.80398750   2.29700851
  8.12222004  13.02842999   2.29796958
  8.66539097  12.32698059   2.29842043
  9.30830479  11.71565247   2.29803181
 10.03623962  11.20845222   2.29680395
 10.83258915  10.81716251   2.29516459
 11.67909527  10.55095768   2.29355812
 12.55625248  10.41616821   2.29242992
 13.44374466  10.41607666   2.29218197
 14.32096672  10.55065346   2.29271197
 15.16760635  10.81665802   2.29369187
 15.96412849  11.20781708   2.29480410
 16.69222641  11.71499538   2.29573274
 17.33521843  12.32642651   2.29618025
 17.87831688  13.02807522   2.29623008
 18.30897141  13.80383873   2.29606271
 18.61721992  14.63586903   2.29580832
 18.79590797  15.50499725   2.29559875
 18.84074402  16.39579201   2.29556370
 18.71632385  17.45170212   2.29572225
 18.35938454  18.56970406   2.29598451
 17.83654213  19.52072906   2.29627109
 17.34483147  20.14906120   2.29650116
 17.13117409  20.37433624   2.29659557
  9.79060841  19.45255852   1.95258641
  9.62464714  19.27752876   1.95262492
  9.24271297  18.78935814   1.95270550
  8.83662033  18.05051613   1.95277858
  8.55941105  17.18199348   1.95279193
  8.46279240  16.36173058   1.95269561
  8.49758625  15.66973877   1.95239282
  8.63629532  14.99454880   1.95186627
  8.87564468  14.34814072   1.95127654
  9.21012974  13.74542713   1.95078564
  9.63204479  13.20032501   1.95055497
 10.13166428  12.72542477   1.95075357
 10.69745159  12.33168983   1.95138085
 11.31633472  12.02819157   1.95221841
 11.97402954  11.82191181   1.95303929
 12.65536499  11.71758366   1.95361567
 13.34463692  11.71759510   1.95374262
 14.02596474  11.82194805   1.95347202
 14.68364334  12.02825165   1.95297170
 15.30250740  12.33176613   1.95240319
 15.86827469  12.72550297   1.95192897
 16.36788559  13.20039177   1.95170033
 16.78981018  13.74546909   1.95167518
 17.12432098  14.34815788   1.95176065
 17.36370659  14.99454975   1.95189047
 17.50245285  15.66973495   1.95199764
 17.53727150  16.36173248   1.95201552
 17.44066620  17.18200684   1.95193446
 17.16346169  18.05054855   1.95180058
 16.75736618  18.78940773   1.95165443
 16.37542725  19.27758980   1.95153689
 16.20946312  19.45262527   1.95148849
 10.10024738  19.14291954   2.36426973
  9.95027065  18.98480034   2.36434627
  9.60511780  18.54376602   2.36450768
  9.23813057  17.87621498   2.36465240
  8.98764229  17.09145164   2.36467957
  8.90043354  16.35029221   2.36448741
  8.93215561  15.72508240   2.36388302
  9.05795574  15.11519814   2.36283350
  9.27468491  14.53148365   2.36165643
  9.57719517  13.98734093   2.36067653
  9.95840740  13.49518013   2.36021662
 10.40949249  13.06615353   2.36061192
 10.92017555  12.71004486   2.36186290
 11.47889996  12.43516827   2.36353326
 12.07291412  12.24804878   2.36516953
 12.68853664  12.15323257   2.36631942
 13.31146526  12.15312195   2.36657286
 13.92716599  12.24768162   2.36603332
 14.52133846  12.43455982   2.36503625
 15.08027267  12.70927906   2.36390328
 15.59115028  13.06536198   2.36295843
 16.04232979  13.49451351   2.36250257
 16.42345047  13.98691463   2.36245203
 16.72569847  14.53130817   2.36262298
 16.94206619  15.11519241   2.36288190
 17.06750679  15.72512627   2.36309576
 17.09897995  16.35027695   2.36313128
 17.01163292  17.09129906   2.36296916
 16.76109505  17.87587547   2.36270213
 16.39413071  18.54325485   2.36241055
 16.04903221  18.98416710   2.36217594
 15.89908218  19.14224434   2.36207962
  9.17980480  20.06336212   1.72062695
  8.98227215  19.85500717   1.72059047
  8.52768612  19.27390862   1.72051239
  8.04434681  18.39444542   1.72044277
  7.71439266  17.36064529   1.72042990
  7.59933949  16.38429451   1.72052228
  7.64059830  15.56059456   1.72081316
  7.80544758  14.75681305   1.72131848
  8.09009171  13.98719978   1.72188449
  8.48807144  13.26955032   1.72235620
  8.99028301  12.62051392   1.72257745
  9.58517075  12.05520248   1.72238731
 10.25892067  11.58673191   1.72178519
 10.99583530  11.22583675   1.72098160
 11.77882385  10.98070526   1.72019434
 12.58981514  10.85682774   1.71964109
 13.41018009  10.85690498   1.71951914
 14.22111702  10.98096561   1.71977842
 15.00399399  11.22626877   1.72025847
 15.74076271  11.58727646   1.72080326
 16.41437340  12.05576515   1.72125769
 17.00919533  12.62098789   1.72147703
 17.51147461  13.26985264   1.72150123
 17.90964317  13.98732471   1.72141874
 18.19454575  14.75681591   1.72129428
 18.35965157  15.56056213   1.72119153
 18.40109062  16.38430595   1.72117472
 18.28613472  17.36075592   1.72125232
 17.95621681  18.39468765   1.72138119
 17.47286034  19.27427483   1.72152150
[...]
POINT_DATA 3197
COLOR_SCALARS tangents 4
  0.68781450   0.72588650   0.00006803 1.0
  0.61598181   0.78776037   0.00005532 1.0
  0.48151460   0.87643807   0.00003665 1.0
  0.30403135   0.95266203   0.00000621 1.0
  0.11722121   0.99310583   0.00004933 1.0
  0.04930689   0.99878366   0.00018473 1.0
  0.19967557   0.97986201   0.00032386 1.0
  0.34556321   0.93839540   0.00036168 1.0
  0.48394970   0.87509576   0.00030171 1.0
  0.61153298   0.79121893   0.00014074 1.0
  0.72522303   0.68851401   0.00012302 1.0
  0.82188975   0.56964646   0.00038818 1.0
  0.89896292   0.43802443   0.00051748 1.0
  0.95490998   0.29689507   0.00050668 1.0
  0.98874159   0.14963267   0.00035591 1.0
  0.99999992   0.00039951   0.00007770 1.0
  0.98859752   0.15058191   0.00016952 1.0
  0.95461048   0.29785691   0.00031106 1.0
  0.89859222   0.43878456   0.00035301 1.0
  0.82161701   0.57003982   0.00029449 1.0
  0.72528987   0.68844359   0.00014213 1.0
  0.61217065   0.79072568   0.00001625 1.0
  0.48506695   0.87447702   0.00005301 1.0
  0.34692338   0.93789347   0.00008026 1.0
  0.20096753   0.97959790   0.00006664 1.0
  0.05019927   0.99873922   0.00001078 1.0
  0.11675719   0.99316049   0.00004137 1.0
  0.30375857   0.95274904   0.00006279 1.0
  0.48134902   0.87652902   0.00007339 1.0
  0.61587979   0.78784014   0.00008012 1.0
  0.68775339   0.72594440   0.00008535 1.0
  0.68775339   0.72594440   0.00008535 1.0
  0.68815415   0.72556450   0.00011882 1.0
  0.61627976   0.78752730   0.00009736 1.0
  0.48173322   0.87631792   0.00006411 1.0
  0.30407288   0.95264877   0.00001099 1.0
  0.11688629   0.99314530   0.00008632 1.0
  0.05057280   0.99872032   0.00032619 1.0
  0.20184300   0.97941772   0.00056860 1.0
  0.34788829   0.93753577   0.00063728 1.0
  0.48575562   0.87409450   0.00053117 1.0
  0.61229876   0.79062644   0.00024920 1.0
  0.72464833   0.68911882   0.00021370 1.0
  0.82038404   0.57181253   0.00067723 1.0
  0.89741380   0.44118891   0.00090434 1.0
  0.95387864   0.30019119   0.00088630 1.0
  0.98837562   0.15203044   0.00062190 1.0
  0.99999998   0.00013383   0.00013721 1.0
  0.98842503   0.15170984   0.00029133 1.0
  0.95398025   0.29986895   0.00053977 1.0
  0.89753946   0.44093372   0.00061283 1.0
  0.82047651   0.57168000   0.00051113 1.0
  0.72462731   0.68914091   0.00024645 1.0
  0.61208438   0.79079246   0.00002738 1.0
  0.48537997   0.87430331   0.00009297 1.0
  0.34743661   0.93770346   0.00014030 1.0
  0.20140914   0.97950719   0.00011562 1.0
  0.05027188   0.99873557   0.00001951 1.0
  0.11704056   0.99312713   0.00007364 1.0
  0.30416439   0.95261955   0.00010914 1.0
  0.48179082   0.87628625   0.00012935 1.0
  0.61631142   0.78750252   0.00014174 1.0
  0.68817458   0.72554513   0.00014879 1.0
  0.68817458   0.72554513   0.00014879 1.0
  0.68807053   0.72564376   0.00026958 1.0
  0.61620584   0.78758512   0.00022063 1.0
  0.48167939   0.87634750   0.00014555 1.0
  0.30406365   0.95265172   0.00002525 1.0
  0.11696829   0.99313563   0.00019666 1.0
  0.05026266   0.99873576   0.00073982 1.0
  0.20131080   0.97952657   0.00129132 1.0
  0.34731882   0.93774599   0.00144696 1.0
  0.48531181   0.87434032   0.00120525 1.0
  0.61211052   0.79077202   0.00056583 1.0
  0.72478890   0.68897084   0.00048673 1.0
  0.82075295   0.57128121   0.00153909 1.0
  0.89779239   0.44041413   0.00205536 1.0
  0.95413053   0.29938415   0.00201351 1.0
  0.98846481   0.15144412   0.00141428 1.0
  0.99999995   0.00000294   0.00031182 1.0
  0.98846697   0.15143519   0.00066456 1.0
  0.95413424   0.29937659   0.00122726 1.0
  0.89779657   0.44040820   0.00139464 1.0
  0.82075481   0.57127943   0.00116340 1.0
  0.72478806   0.68897166   0.00056032 1.0
  0.61210686   0.79077506   0.00006313 1.0
  0.48530293   0.87434605   0.00021051 1.0
  0.34731080   0.93775002   0.00031861 1.0
  0.20130193   0.97952921   0.00026245 1.0
  0.05025554   0.99873639   0.00004382 1.0
  0.11697248   0.99313514   0.00016557 1.0
  0.30406529   0.95265116   0.00024893 1.0
  0.48168140   0.87634636   0.00029350 1.0
  0.61620697   0.78758420   0.00032043 1.0
  0.68806831   0.72564584   0.00033881 1.0
  0.68806831   0.72564584   0.00033881 1.0
  0.68811452   0.72560210   0.00003265 1.0
  0.61624667   0.78755320   0.00002781 1.0
  0.48170911   0.87633118   0.00001818 1.0
  0.30406913   0.95264997   0.00000350 1.0
  0.11692348   0.99314093   0.00002525 1.0
  0.05043242   0.99872747   0.00009154 1.0
  0.20160217   0.97946748   0.00016119 1.0
  0.34763123   0.93763132   0.00018034 1.0
  0.48555629   0.87420539   0.00015040 1.0
  0.61221236   0.79069338   0.00007041 1.0
  0.72471269   0.68905117   0.00006084 1.0
  0.82055237   0.57157132   0.00019178 1.0
  0.89758689   0.44083751   0.00025723 1.0
  0.95399416   0.29982508   0.00025134 1.0
  0.98841681   0.15176354   0.00017661 1.0
  1.00000000   0.00007410   0.00003890 1.0
  0.98844418   0.15158526   0.00008305 1.0
  0.95405105   0.29964408   0.00015407 1.0
  0.89765702   0.44069474   0.00017415 1.0
  0.82060423   0.57149687   0.00014575 1.0
  0.72469942   0.68906513   0.00007041 1.0
  0.61209541   0.79078392   0.00000772 1.0
  0.48534600   0.87432217   0.00002625 1.0
  0.34737768   0.93772531   0.00003984 1.0
  0.20135977   0.97951735   0.00003304 1.0
  0.05026525   0.99873590   0.00000522 1.0
  0.11701086   0.99313063   0.00002036 1.0
  0.30412045   0.95263359   0.00003128 1.0
  0.48174003   0.87631418   0.00003661 1.0
  0.61626633   0.78753781   0.00003984 1.0
  0.68812523   0.72559194   0.00004236 1.0
  0.68812523   0.72559194   0.00004236 1.0
  0.68813366   0.72558391   0.00024186 1.0
  0.61626062   0.78754226   0.00019779 1.0
  0.48172068   0.87632481   0.00013114 1.0
  0.30407020   0.95264963   0.00002275 1.0
  0.11690567   0.99314301   0.00017691 1.0
  0.05049666   0.99872401   0.00066502 1.0
  0.20171216   0.97944416   0.00116022 1.0
  0.34774944   0.93758660   0.00130030 1.0
  0.48564675   0.87415448   0.00108325 1.0
  0.61225298   0.79066176   0.00050819 1.0
  0.72468409   0.68908111   0.00043805 1.0
  0.82047577   0.57167962   0.00138395 1.0
  0.89750798   0.44099435   0.00184761 1.0
  0.95394055   0.29999025   0.00181035 1.0
  0.98839761   0.15188336   0.00127127 1.0
  0.99999996   0.00010316   0.00027939 1.0
  0.98843586   0.15163838   0.00059720 1.0
  0.95401962   0.29974214   0.00110418 1.0
  0.89760489   0.44079915   0.00125337 1.0
  0.82054776   0.57157700   0.00104655 1.0
  0.72466795   0.68909804   0.00050436 1.0
  0.61209324   0.79078560   0.00005616 1.0
  0.48536282   0.87431281   0.00018863 1.0
  0.34740269   0.93771599   0.00028671 1.0
  0.20138249   0.97951265   0.00023619 1.0
  0.05026900   0.99873571   0.00003929 1.0
  0.11702256   0.99312925   0.00014912 1.0
  0.30414084   0.95262705   0.00022347 1.0
  0.48176214   0.87630199   0.00026406 1.0
  0.61628684   0.78752172   0.00028836 1.0
  0.68815005   0.72556834   0.00030409 1.0
  0.68815005   0.72556834   0.00030409 1.0
  0.68805834   0.72565536   0.00015964 1.0
  0.61619578   0.78759301   0.00013001 1.0
  0.48167243   0.87635133   0.00008668 1.0
  0.30406128   0.95265247   0.00001464 1.0
  0.11698113   0.99313413   0.00011662 1.0
  0.05021729   0.99873822   0.00043701 1.0
  0.20123443   0.97954281   0.00076390 1.0
  0.34723636   0.93777725   0.00085555 1.0
  0.48524830   0.87437611   0.00071217 1.0
  0.61208291   0.79079352   0.00033464 1.0
  0.72480977   0.68894899   0.00028812 1.0
  0.82080708   0.57120478   0.00091002 1.0
  0.89784884   0.44030214   0.00121510 1.0
  0.95416896   0.29926606   0.00119091 1.0
  0.98847853   0.15135884   0.00083621 1.0
  0.99999998   0.00001660   0.00018419 1.0
  0.98847316   0.15139568   0.00039259 1.0
  0.95415740   0.29930441   0.00072586 1.0
  0.89783454   0.44033222   0.00082478 1.0
  0.82079645   0.57122037   0.00068797 1.0
  0.72481214   0.68894648   0.00033171 1.0
  0.61210901   0.79077339   0.00003649 1.0
  0.48529224   0.87435200   0.00012400 1.0
  0.34729038   0.93775762   0.00018834 1.0
  0.20128763   0.97953217   0.00015548 1.0
  0.05025257   0.99873654   0.00002581 1.0
  0.11696358   0.99313620   0.00009815 1.0
  0.30405047   0.95265591   0.00014684 1.0
  0.48166644   0.87635461   0.00017335 1.0
  0.61619159   0.78759628   0.00018963 1.0
  0.68805273   0.72566066   0.00020065 1.0
  0.68805273   0.72566066   0.00020065 1.0
  0.68817877   0.72554108   0.00035117 1.0
  0.61630332   0.78750881   0.00028821 1.0
  0.48175159   0.87630781   0.00018998 1.0
  0.30407532   0.95264799   0.00003299 1.0
  0.11685911   0.99314847   0.00025750 1.0
  0.05067307   0.99871483   0.00096546 1.0
  0.20201577   0.97938082   0.00168537 1.0
  0.34807431   0.93746504   0.00189042 1.0
  0.48589853   0.87401381   0.00157394 1.0
  0.61235833   0.79057999   0.00073877 1.0
  0.72460150   0.68916780   0.00063499 1.0
  0.82026233   0.57198397   0.00200934 1.0
  0.89728688   0.44143975   0.00268253 1.0
  0.95379304   0.30045287   0.00262731 1.0
  0.98834465   0.15222168   0.00184608 1.0
  0.99999990   0.00017759   0.00040685 1.0
  0.98841074   0.15180069   0.00086615 1.0
  0.95392897   0.30002826   0.00160077 1.0
  0.89745429   0.44110372   0.00181915 1.0
  0.82038464   0.57181006   0.00151728 1.0
  0.72457328   0.68919738   0.00073208 1.0
  0.61207971   0.79079607   0.00008117 1.0
  0.48540622   0.87428870   0.00027454 1.0
  0.34747574   0.93768888   0.00041582 1.0
  0.20144643   0.97949947   0.00034344 1.0
  0.05028124   0.99873510   0.00005675 1.0
  0.11706327   0.99312444   0.00021728 1.0
  0.30419568   0.95260951   0.00032422 1.0
  0.48182363   0.87626813   0.00038285 1.0
  0.61634890   0.78747309   0.00041900 1.0
  0.68821039   0.72551103   0.00044208 1.0
  0.68821039   0.72551103   0.00044208 1.0
  0.68800847   0.72570265   0.00012705 1.0
  0.61615126   0.78762784   0.00010583 1.0
  0.48163914   0.87636964   0.00006937 1.0
  0.30405518   0.95265442   0.00001186 1.0
  0.11703024   0.99312835   0.00009397 1.0
  0.05002689   0.99874781   0.00035268 1.0
  0.20091022   0.97960947   0.00061587 1.0
  0.34688790   0.93790634   0.00068978 1.0
  0.48497746   0.87452646   0.00057483 1.0
  0.61196879   0.79088187   0.00026961 1.0
  0.72489713   0.68885709   0.00023169 1.0
  0.82103351   0.57087953   0.00073375 1.0
  0.89808280   0.43982534   0.00097934 1.0
  0.95432410   0.29877179   0.00095953 1.0
  0.98853401   0.15099687   0.00067437 1.0
  0.99999998   0.00009416   0.00014865 1.0
  0.98849933   0.15122489   0.00031605 1.0
  0.95425255   0.29900121   0.00058514 1.0
  0.89799443   0.44000632   0.00066400 1.0
  0.82096794   0.57097402   0.00055383 1.0
  0.72491304   0.68884033   0.00026732 1.0
  0.61212167   0.79076360   0.00002949 1.0
  0.48524520   0.87437812   0.00010053 1.0
  0.34721343   0.93778612   0.00015167 1.0
  0.20121874   0.97954633   0.00012523 1.0
  0.05024222   0.99873706   0.00002038 1.0
  0.11692094   0.99314122   0.00007893 1.0
  0.30398974   0.95267530   0.00011874 1.0
  0.48160013   0.87639106   0.00013980 1.0
  0.61612688   0.78764690   0.00015316 1.0
  0.68799388   0.72571647   0.00016191 1.0
  0.68799388   0.72571647   0.00016191 1.0
  0.68796268   0.72574607   0.00003638 1.0
  0.61610854   0.78766126   0.00002957 1.0
  0.48160798   0.87638676   0.00001976 1.0
  0.30405034   0.95265597   0.00000353 1.0
  0.11707758   0.99312277   0.00002676 1.0
  0.04984755   0.99875683   0.00009971 1.0
  0.20060215   0.97967278   0.00017354 1.0
  0.34655880   0.93802823   0.00019494 1.0
  0.48472286   0.87466778   0.00016141 1.0
  0.61185961   0.79096638   0.00007619 1.0
  0.72497723   0.68877283   0.00006604 1.0
  0.82124644   0.57057361   0.00020829 1.0
  0.89830236   0.43937773   0.00027777 1.0
  0.95446996   0.29830691   0.00027234 1.0
  0.98858571   0.15065942   0.00019099 1.0
  0.99999998   0.00017150   0.00004142 1.0
  0.98852360   0.15106647   0.00009010 1.0
  0.95434139   0.29871808   0.00016697 1.0
  0.89814215   0.43970517   0.00018967 1.0
  0.82112908   0.57074250   0.00015759 1.0
  0.72500593   0.68874262   0.00007605 1.0
  0.61213285   0.79075494   0.00000870 1.0
  0.48520041   0.87440297   0.00002803 1.0
  0.34714097   0.93781296   0.00004334 1.0
  0.20115645   0.97955913   0.00003545 1.0
  0.05023195   0.99873758   0.00000593 1.0
  0.11688044   0.99314599   0.00002219 1.0
  0.30393227   0.95269364   0.00003338 1.0
  0.48153886   0.87642474   0.00003978 1.0
  0.61606529   0.78769509   0.00004318 1.0
  0.68793301   0.72577419   0.00004558 1.0
  0.68793301   0.72577419   0.00004558 1.0
  0.68822814   0.72549433   0.00006156 1.0
  0.61634741   0.78747436   0.00005027 1.0
  0.48178210   0.87629105   0.00003398 1.0
  0.30408351   0.95264538   0.00000573 1.0
  0.11681022   0.99315425   0.00004532 1.0
  0.05085910   0.99870582   0.00016751 1.0
  0.20233476   0.97931637   0.00029402 1.0
  0.34841542   0.93734016   0.00032958 1.0
  0.48616464   0.87386719   0.00027409 1.0
  0.61247222   0.79049210   0.00012841 1.0
  0.72451910   0.68925471   0.00011080 1.0
  0.82004293   0.57230190   0.00035209 1.0
  0.89706238   0.44190367   0.00047036 1.0
  0.95364497   0.30093363   0.00045992 1.0
  0.98829221   0.15257263   0.00032182 1.0
  0.99999997   0.00025476   0.00007036 1.0
  0.98838618   0.15196292   0.00015225 1.0
  0.95383854   0.30031976   0.00028149 1.0
  0.89730261   0.44141582   0.00031915 1.0
  0.82021927   0.57204919   0.00026792 1.0
  0.72447748   0.68929846   0.00012806 1.0
  0.61206654   0.79080627   0.00001517 1.0
  0.48545318   0.87426267   0.00004916 1.0
  0.34755060   0.93766123   0.00007283 1.0
  0.20150839   0.97948679   0.00005917 1.0
  0.05029161   0.99873458   0.00001117 1.0
  0.11710501   0.99311954   0.00003875 1.0
  0.30425650   0.95259014   0.00005621 1.0
  0.48188850   0.87623254   0.00006674 1.0
  0.61641141   0.78742426   0.00007425 1.0
  0.68826811   0.72545641   0.00007545 1.0
  0.68826811   0.72545641   0.00007545 1.0
  0.68796651   0.72574232   0.00039976 1.0
  0.61611134   0.78765901   0.00032815 1.0
  0.48161063   0.87638528   0.00021735 1.0
  0.30404957   0.95265621   0.00003738 1.0
  0.11707366   0.99312319   0.00029293 1.0
  0.04986485   0.99875537   0.00110063 1.0
  0.20062819   0.97966558   0.00192077 1.0
  0.34658703   0.93801535   0.00215282 1.0
  0.48474343   0.87465456   0.00179268 1.0
  0.61186851   0.79095905   0.00084019 1.0
  0.72496994   0.68878012   0.00072408 1.0
  0.82122507   0.57059981   0.00229068 1.0
  0.89827736   0.43941829   0.00305841 1.0
  0.95445290   0.29834658   0.00299789 1.0
  0.98857892   0.15068941   0.00210490 1.0
  0.99999988   0.00016327   0.00046352 1.0
  0.98852091   0.15108085   0.00098962 1.0
  0.95433174   0.29874335   0.00182838 1.0
  0.89812599   0.43973332   0.00207599 1.0
  0.82111408   0.57076148   0.00173304 1.0
  0.72499612   0.68875244   0.00083469 1.0
  0.61213249   0.79075522   0.00009337 1.0
  0.48520808   0.87439866   0.00031366 1.0
  0.34714850   0.93781005   0.00047472 1.0
  0.20116446   0.97955740   0.00039097 1.0
  0.05022963   0.99873769   0.00006460 1.0
  0.11688274   0.99314569   0.00024688 1.0
  0.30393522   0.95269263   0.00036989 1.0
  0.48154336   0.87642216   0.00043654 1.0
  0.61607167   0.78768996   0.00047729 1.0
  0.68793385   0.72577322   0.00050393 1.0
  0.68793385   0.72577322   0.00050393 1.0
  0.68791000   0.72579600   0.00003264 1.0
  0.61606035   0.78769895   0.00002737 1.0
  0.48157302   0.87640597   0.00001802 1.0
  0.30404348   0.95265816   0.00000353 1.0
  0.11713116   0.99311645   0.00002457 1.0
  0.04964515   0.99876692   0.00009138 1.0
  0.20025498   0.97974380   0.00016005 1.0
  0.34618605   0.93816586   0.00017852 1.0
  0.48443338   0.87482814   0.00014858 1.0
  0.61173750   0.79106082   0.00006994 1.0
  0.72506902   0.68867620   0.00006126 1.0
  0.82148809   0.57022564   0.00019183 1.0
  0.89854935   0.43887242   0.00025589 1.0
  0.95463534   0.29777728   0.00025065 1.0
  0.98864416   0.15027540   0.00017604 1.0
  0.99999997   0.00025620   0.00003798 1.0
  0.98855122   0.15088563   0.00008336 1.0
  0.95444246   0.29839497   0.00015463 1.0
  0.89831011   0.43936194   0.00017456 1.0
  0.82131244   0.57047861   0.00014606 1.0
  0.72511109   0.68863191   0.00007061 1.0
  0.61214781   0.79074336   0.00000804 1.0
  0.48515049   0.87443067   0.00002605 1.0
  0.34705938   0.93784316   0.00003989 1.0
  0.20108788   0.97957320   0.00003265 1.0
  0.05021675   0.99873834   0.00000544 1.0
  0.11683489   0.99315135   0.00002014 1.0
  0.30386757   0.95271428   0.00003113 1.0
  0.48146674   0.87646436   0.00003603 1.0
  0.61599649   0.78774889   0.00004006 1.0
  0.68786559   0.72583809   0.00004182 1.0
  0.68786559   0.72583809   0.00004182 1.0
  0.68821841   0.72550356   0.00011157 1.0
  0.61633706   0.78748246   0.00009336 1.0
  0.48177636   0.87629421   0.00006071 1.0
  0.30408171   0.95264596   0.00001087 1.0
  0.11681993   0.99315311   0.00008206 1.0
  0.05082000   0.99870778   0.00030984 1.0
  0.20226478   0.97933072   0.00053989 1.0
  0.34834266   0.93736707   0.00060487 1.0
  0.48610818   0.87389850   0.00050365 1.0
  0.61244826   0.79051064   0.00023614 1.0
  0.72453746   0.68923540   0.00020442 1.0
  0.82009085   0.57223298   0.00064490 1.0
  0.89711127   0.44180383   0.00086027 1.0
  0.95367727   0.30083044   0.00084392 1.0
  0.98830394   0.15249583   0.00059078 1.0
  0.99999996   0.00023946   0.00013029 1.0
  0.98839152   0.15192804   0.00027849 1.0
  0.95385833   0.30025658   0.00051566 1.0
  0.89733614   0.44134737   0.00058501 1.0
  0.82025632   0.57199592   0.00048763 1.0
  0.72449735   0.68927755   0.00023606 1.0
  0.61206910   0.79080428   0.00002672 1.0
  0.48544488   0.87426727   0.00008897 1.0
  0.34753428   0.93766727   0.00013359 1.0
  0.20149545   0.97948944   0.00010951 1.0
  0.05028804   0.99873476   0.00001811 1.0
  0.11709725   0.99312045   0.00006885 1.0
  0.30424300   0.95259445   0.00010411 1.0
  0.48187437   0.87624031   0.00012218 1.0
  0.61639876   0.78743416   0.00013388 1.0
  0.68825372   0.72547005   0.00014265 1.0
  0.68825372   0.72547005   0.00014265 1.0
  0.68795661   0.72575178   0.00024746 1.0
  0.61610865   0.78766115   0.00020287 1.0
  0.48160692   0.87638733   0.00013416 1.0
  0.30404841   0.95265658   0.00002307 1.0
  0.11707788   0.99312272   0.00018140 1.0
  0.04984474   0.99875675   0.00068026 1.0
  0.20059804   0.97967291   0.00118706 1.0
  0.34655218   0.93802975   0.00133011 1.0
  0.48471873   0.87466938   0.00110812 1.0
  0.61185823   0.79096728   0.00051990 1.0
  0.72497969   0.68877010   0.00044672 1.0
  0.82125151   0.57056459   0.00141360 1.0
  0.89830511   0.43936813   0.00188848 1.0
  0.95447194   0.29829497   0.00185105 1.0
  0.98858611   0.15065129   0.00129994 1.0
  0.99999994   0.00017029   0.00028676 1.0
  0.98852449   0.15105948   0.00060951 1.0
  0.95434374   0.29870849   0.00112804 1.0
  0.89814649   0.43969449   0.00128049 1.0
  0.82113365   0.57073496   0.00106850 1.0
  0.72500992   0.68873823   0.00051507 1.0
  0.61213463   0.79075356   0.00005701 1.0
  0.48520111   0.87440256   0.00019337 1.0
  0.34714139   0.93781276   0.00029280 1.0
  0.20115540   0.97955931   0.00024115 1.0
  0.05023105   0.99873762   0.00004034 1.0
  0.11687691   0.99314640   0.00015267 1.0
  0.30393248   0.95269355   0.00022896 1.0
  0.48153593   0.87642631   0.00026925 1.0
  0.61606309   0.78769676   0.00029524 1.0
  0.68793263   0.72577449   0.00031051 1.0
  0.68793263   0.72577449   0.00031051 1.0
  0.68802722   0.72568488   0.00003263 1.0
  0.61616746   0.78761517   0.00002737 1.0
  0.48165098   0.87636313   0.00001802 1.0
  0.30405789   0.95265356   0.00000353 1.0
  0.11701265   0.99313042   0.00002456 1.0
  0.05009417   0.99874449   0.00009137 1.0
  0.20102665   0.97958576   0.00016003 1.0
  0.34701266   0.93786043   0.00017852 1.0
  0.48507445   0.87447284   0.00014924 1.0
  0.61200955   0.79085037   0.00006931 1.0
  0.72486525   0.68889068   0.00005999 1.0
  0.82095273   0.57099613   0.00019122 1.0
  0.89799904   0.43999734   0.00025460 1.0
  0.95426911   0.29894882   0.00024915 1.0
  0.98851443   0.15112640   0.00017533 1.0
  1.00000000   0.00006692   0.00003796 1.0