# vtk DataFile Version 3.0
trk2vtk output
ASCII
DATASET POLYDATA
POINTS 6394 float
 32.07753372  28.17946625   0.99865288
 32.28176117  27.97536278   0.99867016
 32.80688477  27.45050049   0.99870622
 33.52157974  26.73604393   0.99873883
 34.29450989  25.96315765   0.99874479
 34.99434280  25.26301003   0.99870181
 35.58082199  24.67554665   0.99856693
 36.16390228  24.09075928   0.99833184
 36.74687958  23.50586891   0.99806911
 37.33001328  22.92114067   0.99784982
 37.91357422  22.33683395   0.99774754
 38.49782944  21.75322151   0.99783695
 39.08277893  21.17030716   0.99811900
 39.66806793  20.58773613   0.99849486
 40.25333023  20.00513649   0.99886280
 40.83819580  19.42214012   0.99912113
 41.42233658  18.83841324   0.99917740
 42.00582886  18.25404167   0.99905443
 42.58895111  17.66929626   0.99882871
 43.17196274  17.08444214   0.99857241
 43.75512695  16.49973869   0.99835855
 44.33868790  15.91543388   0.99825531
 44.92258072  15.33145905   0.99824345
 45.50665665  14.74766445   0.99828196
 46.09080124  14.16394138   0.99834025
 46.67490768  13.58018112   0.99838865
 47.26190948  12.99323750   0.99839658
 47.96176910  12.29311466   0.99836051
 48.73445892  11.51998997   0.99830025
 49.44879532  10.80517769   0.99823505
 49.97359848  10.27999306   0.99818271
 50.17768478  10.07575035   0.99816096
 32.17413330  28.27606583   2.30888915
 32.37828064  28.07188225   2.30891824
 32.90322876  27.54684639   2.30897999
 33.61776352  26.83223343   2.30903530
 34.39066315  26.05932045   2.30904579
 35.09070587  25.35937881   2.30897260
 35.67783737  24.77256775   2.30874157
 36.26205063  24.18891144   2.30834031
 36.84629440  23.60528946   2.30789089
 37.43048477  23.02161598   2.30751657
 38.01454163  22.43780518   2.30734086
 38.59836960  21.85376549   2.30749130
 39.18197250  21.26950073   2.30796909
 39.76546097  20.68512535   2.30860662
 40.34896088  20.10075951   2.30923200
 40.93258667  19.51652145   2.30967045
 41.51645279  18.93252182   2.30976725
 42.10053253  18.34873199   2.30956197
 42.68473053  17.76506233   2.30918097
 43.26896286  17.18143082   2.30874896
 43.85314941  16.59774780   2.30838823
 44.43720245  16.01393509   2.30821443
 45.02114868  15.43001556   2.30819511
 45.60503769  14.84603786   2.30826092
 46.18889999  14.26203537   2.30835962
 46.77277756  13.67804527   2.30844116
 47.35974121  13.09106350   2.30845499
 48.05977631  12.39111614   2.30839276
 48.83275223  11.61828041   2.30829096
 49.54740524  10.90378284   2.30817938
 50.07246017  10.37885189   2.30808949
 50.27664948  10.17471313   2.30805302
 32.43389893  28.53583145   1.99486756
 32.63806152  28.33166504   1.99492884
 33.16305542  27.80667114   1.99505770
 33.87762833  27.09209633   1.99517334
 34.65053558  26.31918907   1.99519503
 35.35052872  25.61919975   1.99504197
 35.93750381  25.03223038   1.99455893
 36.52144241  24.44830322   1.99372029
 37.10538101  23.86437607   1.99278033
 37.68931961  23.28044891   1.99199748
 38.27325439  22.69651794   1.99163008
 38.85718536  22.11258316   1.99194610
 39.44111252  21.52864265   1.99294579
 40.02503204  20.94470024   1.99428082
 40.60895538  20.36075592   1.99558866
 41.19287872  19.77681732   1.99650741
 41.77680969  19.19288254   1.99670982
 42.36074829  18.60895348   1.99627817
 42.94469070  18.02502823   1.99548101
 43.52862930  17.44110298   1.99457514
 44.11257172  16.85717583   1.99381948
 44.69650650  16.27324486   1.99345553
 45.28044128  15.68931198   1.99341452
 45.86437225  15.10537720   1.99355137
 46.44830704  14.52144241   1.99375832
 47.03223801  13.93750668   1.99392867
 47.61920929  13.35053444   1.99395728
 48.31920242  12.65054512   1.99382842
 49.09210968  11.87763882   1.99361455
 49.80668640  11.16306686   1.99338138
 50.33168030  10.63807392   1.99319422
 50.53584671  10.43391037   1.99311721
 31.86306000  27.96499252   2.18303871
 32.06721115  27.76081467   2.18302989
 32.59217834  27.23579597   2.18301058
 33.30672836  26.52119827   2.18299317
 34.07963181  25.74828720   2.18298984
 34.77965546  25.04832840   2.18301296
 35.36672211  24.46145439   2.18308425
 35.95082855  23.87769127   2.18320870
 36.53495026  23.29394722   2.18334794
 37.11904144  22.71017456   2.18346405
 37.70304871  22.12631416   2.18351841
 38.28691864  21.54231834   2.18347144
 38.87065125  20.95818138   2.18332314
 39.45431137  20.37397766   2.18312454
 40.03798294  19.78977966   2.18293047
 40.62172699  19.20565987   2.18279433
 41.20561981  18.62168694   2.18276405
 41.78964233  18.03783989   2.18282843
 42.37373734  17.45406914   2.18294740
 42.95785141  16.87031746   2.18308163
 43.54193878  16.28653717   2.18319440
 44.12594604  15.70267868   2.18324852
 44.70988846  15.11875343   2.18325448
 45.29379272  14.53479195   2.18323421
 45.87768555  13.95081615   2.18320370
 46.46158218  13.36684799   2.18317795
 47.04854965  12.77987099   2.18317413
 47.74856567  12.07990646   2.18319273
 48.52151489  11.30704308   2.18322492
 49.23613739  10.59251595   2.18325949
 49.76116943  10.06756115   2.18328714
 49.96534729   9.86341286   2.18329859
 31.32648087  27.42841339   2.29219365
 31.53062820  27.22422981   2.29211855
 32.05558014  26.69919395   2.29196048
 32.77011871  25.98458290   2.29181814
 33.54301834  25.21166992   2.29179168
 34.24305725  24.51172638   2.29197979
 34.83018494  23.92490768   2.29257298
 35.41438293  23.34123993   2.29360223
 35.99861145  22.75760651   2.29475594
 36.58279419  22.17391968   2.29571724
 37.16684341  21.59010315   2.29616809
 37.75067520  21.00607300   2.29577947
 38.33429337  20.42182350   2.29455161
 38.91780472  19.83747101   2.29291224
 39.50131989  19.25312614   2.29130554
 40.08496475  18.66890335   2.29017758
 40.66883087  18.08490753   2.28992963
 41.25289917  17.50111008   2.29045963
 41.83708572  16.91742706   2.29143953
 42.42130280  16.33378029   2.29255176
 43.00547409  15.75008392   2.29348016
 43.58952332  15.16626549   2.29392767
 44.17346954  14.58234310   2.29397750
 44.75735855  13.99836636   2.29381013
 45.34122849  13.41436768   2.29355574
 45.92510986  12.83037949   2.29334641
 46.51206970  12.24339867   2.29331136
 47.21210480  11.54344845   2.29346991
 47.98507690  10.77060890   2.29373217
 48.69972610  10.05610752   2.29401851
 49.22478104   9.53117275   2.29424882
 49.42897034   9.32703304   2.29434299
 32.24881363  28.35074425   1.95033395
 32.45298004  28.14658356   1.95037246
 32.97797775  27.62159538   1.95045304
 33.69255829  26.90702438   1.95052612
 34.46546555  26.13411903   1.95053947
 35.16544724  25.43412209   1.95044315
 35.75240326  24.84713173   1.95014036
 36.33630371  24.26316643   1.94961381
 36.92020035  23.67919922   1.94902408
 37.50410461  23.09523392   1.94853318
 38.08802414  22.51128769   1.94830251
 38.67197037  21.92736626   1.94850111
 39.25593948  21.34346962   1.94912839
 39.83992386  20.75958824   1.94996607
 40.42390442  20.17570496   1.95078683
 41.00787354  19.59180450   1.95136333
 41.59181213  19.00788116   1.95149016
 42.17573166  18.42393112   1.95121956
 42.75963593  17.83996773   1.95071924
 43.34353256  17.25600052   1.95015073
 43.92744064  16.67203903   1.94967663
 44.51136017  16.08809280   1.94944787
 45.09529114  15.50415802   1.94942272
 45.67922974  14.92022991   1.94950819
 46.26317215  14.33630371   1.94963801
 46.84711075  13.75237656   1.94974530
 47.43408203  13.16540623   1.94976306
 48.13406754  12.46541023   1.94968200
 48.90696716  11.69249535   1.94954813
 49.62153244  10.97791290   1.94940197
 50.14651871  10.45291233   1.94928443
 50.35068130  10.24874496   1.94923604
 32.55845261  28.66038322   2.36201715
 32.76259232  28.45619583   2.36209369
 33.28753662  27.93115234   2.36225533
 34.00206757  27.21653175   2.36240005
 34.77496719  26.44361496   2.36242723
 35.47501755  25.74368286   2.36223507
 36.06217575  25.15689850   2.36163044
 36.64643097  24.57328796   2.36058092
 37.23072433  23.98971748   2.35940409
 37.81496048  23.40608406   2.35842419
 38.39903259  22.82229233   2.35796428
 38.98284149  22.23823929   2.35835934
 39.56639099  21.65392113   2.35961032
 40.14980698  21.06947327   2.36128092
 40.73323441  20.48503685   2.36291718
 41.31681061  19.90075111   2.36406708
 41.90066528  19.31674194   2.36432028
 42.48476410  18.73297501   2.36378098
 43.06900787  18.14935112   2.36278367
 43.65328979  17.56576920   2.36165071
 44.23751450  16.98212814   2.36070585
 44.82159042  16.39833450   2.36025000
 45.40554047  15.81441689   2.36019969
 45.98942184  15.23043060   2.36037064
 46.57327652  14.64641666   2.36062932
 47.15714264  14.06241608   2.36084318
 47.74410629  13.47543335   2.36087871
 48.44414520  12.77549171   2.36071682
 49.21713638  12.00266647   2.36044955
 49.93180084  11.28818130   2.36015821
 50.45686722  10.76325989   2.35992360
 50.66106033  10.55912495   2.35982728
 31.63800812  27.73994064   1.71837449
 31.84218979  27.53579330   1.71833801
 32.36721802  27.01083565   1.71825993
 33.08182526  26.29629326   1.71819031
 33.85473633  25.52339363   1.71817744
 34.55468750  24.82336044   1.71826982
 35.14152527  24.23625565   1.71856070
 35.72522736  23.65209198   1.71906602
 36.30890274  23.06789780   1.71963203
 36.89262009  22.48374939   1.72010374
 37.47645187  21.89971542   1.72032499
 38.06047440  21.31587029   1.72013485
 38.64468002  20.73221207   1.71953273
 39.22898102  20.14864731   1.71872914
 39.81327438  19.56507683   1.71794188
 40.39746094  18.98139763   1.71738875
 40.98145294  18.39751816   1.71726668
 41.56526566  17.81346703   1.71752596
 42.14897919  17.22931290   1.71800613
 42.73266220  16.64512825   1.71855092
 43.31638336  16.06098747   1.71900523
 43.90021896  15.47695351   1.71922457
 44.48413849  14.89300728   1.71924877
 45.06811142  14.30911255   1.71916628
 45.65210342  13.72523594   1.71904182
 46.23608398  13.14134979   1.71893907
 46.82306290  12.55438519   1.71892226
 47.52301788  11.85435963   1.71899986
 48.29586411  11.08139324   1.71912873
 49.01037598  10.36675549   1.71926904
[...]
POINT_DATA 6394
COLOR_SCALARS tangents 4
  0.70732144   0.70689206   0.00005987 1.0
  0.70728273   0.70693078   0.00004857 1.0
  0.70722473   0.70698881   0.00003226 1.0
  0.70712685   0.70708671   0.00000545 1.0
  0.70694781   0.70726572   0.00004341 1.0
  0.70651371   0.70769934   0.00016249 1.0
  0.70607242   0.70813958   0.00028467 1.0
  0.70594749   0.70826410   0.00031816 1.0
  0.70614065   0.70807155   0.00026554 1.0
  0.70665509   0.70755817   0.00012386 1.0
  0.70749585   0.70671749   0.00010827 1.0
  0.70833788   0.70587345   0.00034154 1.0
  0.70875044   0.70545914   0.00045515 1.0
  0.70871703   0.70549271   0.00044555 1.0
  0.70823759   0.70597409   0.00031282 1.0
  0.70735734   0.70685614   0.00006814 1.0
  0.70657419   0.70763896   0.00014890 1.0
  0.70612330   0.70808884   0.00027334 1.0
  0.70599029   0.70822144   0.00031036 1.0
  0.70617419   0.70803810   0.00025897 1.0
  0.70665624   0.70755702   0.00012501 1.0
  0.70705712   0.70715644   0.00001436 1.0
  0.70727710   0.70693642   0.00004663 1.0
  0.70736195   0.70685151   0.00007059 1.0
  0.70731635   0.70689715   0.00005861 1.0
  0.70714182   0.70707174   0.00000955 1.0
  0.70697382   0.70723971   0.00003643 1.0
  0.70690783   0.70730568   0.00005513 1.0
  0.70687129   0.70734220   0.00006453 1.0
  0.70684983   0.70736363   0.00007049 1.0
  0.70683588   0.70737757   0.00007535 1.0
  0.70683588   0.70737757   0.00007535 1.0
  0.70704402   0.70716953   0.00010074 1.0
  0.70704769   0.70716586   0.00008317 1.0
  0.70706809   0.70714547   0.00005474 1.0
  0.70710067   0.70711289   0.00000960 1.0
  0.70715784   0.70705572   0.00007394 1.0
  0.70729974   0.70691372   0.00027831 1.0
  0.70744383   0.70676940   0.00048590 1.0
  0.70748305   0.70673010   0.00054422 1.0
  0.70741960   0.70679368   0.00045328 1.0
  0.70725572   0.70695778   0.00021278 1.0
  0.70697857   0.70723494   0.00018218 1.0
  0.70670582   0.70750728   0.00057857 1.0
  0.70656936   0.70764337   0.00077201 1.0
  0.70658209   0.70763068   0.00075729 1.0
  0.70673588   0.70747729   0.00053094 1.0
  0.70702593   0.70718761   0.00011722 1.0
  0.70728227   0.70693120   0.00024858 1.0
  0.70742652   0.70678674   0.00046136 1.0
  0.70747037   0.70674282   0.00052314 1.0
  0.70741152   0.70680177   0.00043682 1.0
  0.70725226   0.70696124   0.00021047 1.0
  0.70712295   0.70709061   0.00002339 1.0
  0.70705308   0.70716048   0.00007968 1.0
  0.70702189   0.70719165   0.00011953 1.0
  0.70703864   0.70717491   0.00009874 1.0
  0.70709587   0.70711770   0.00001666 1.0
  0.70715109   0.70706246   0.00006286 1.0
  0.70717090   0.70704265   0.00009314 1.0
  0.70718368   0.70702986   0.00011041 1.0
  0.70719026   0.70702328   0.00012106 1.0
  0.70719430   0.70701924   0.00012634 1.0
  0.70719430   0.70701924   0.00012634 1.0
  0.70710016   0.70711337   0.00021222 1.0
  0.70710677   0.70710677   0.00017357 1.0
  0.70710583   0.70710772   0.00011442 1.0
  0.70710678   0.70710678   0.00001985 1.0
  0.70710870   0.70710485   0.00015462 1.0
  0.70711011   0.70710321   0.00058190 1.0
  0.70711335   0.70709949   0.00101554 1.0
  0.70711325   0.70709939   0.00113824 1.0
  0.70711339   0.70709953   0.00094798 1.0
  0.70710902   0.70710440   0.00044490 1.0
  0.70710442   0.70710904   0.00038269 1.0
  0.70709818   0.70711435   0.00121056 1.0
  0.70709200   0.70711972   0.00161664 1.0
  0.70709319   0.70711860   0.00158372 1.0
  0.70709710   0.70711558   0.00111255 1.0
  0.70710445   0.70710907   0.00024511 1.0
  0.70711246   0.70710091   0.00052271 1.0
  0.70711685   0.70709606   0.00096530 1.0
  0.70711444   0.70709827   0.00109696 1.0
  0.70711572   0.70709725   0.00091506 1.0
  0.70710902   0.70710440   0.00044072 1.0
  0.70710794   0.70710563   0.00004966 1.0
  0.70710446   0.70710908   0.00016572 1.0
  0.70710676   0.70710676   0.00025060 1.0
  0.70710388   0.70710965   0.00020628 1.0
  0.70710621   0.70710736   0.00003447 1.0
  0.70710870   0.70710485   0.00013018 1.0
  0.70710720   0.70710633   0.00019565 1.0
  0.70710912   0.70710440   0.00023074 1.0
  0.70710740   0.70710612   0.00025208 1.0
  0.70711171   0.70710180   0.00026671 1.0
  0.70711171   0.70710180   0.00026671 1.0
  0.70706054   0.70715302   0.00003055 1.0
  0.70707210   0.70714146   0.00002601 1.0
  0.70708319   0.70713037   0.00001722 1.0
  0.70710329   0.70711027   0.00000305 1.0
  0.70713953   0.70707403   0.00002336 1.0
  0.70722280   0.70699073   0.00008588 1.0
  0.70731461   0.70689887   0.00015071 1.0
  0.70733539   0.70687808   0.00016861 1.0
  0.70729961   0.70691389   0.00014060 1.0
  0.70719570   0.70701785   0.00006583 1.0
  0.70703056   0.70718300   0.00005688 1.0
  0.70686190   0.70735155   0.00017958 1.0
  0.70677755   0.70743581   0.00024050 1.0
  0.70678795   0.70742542   0.00023501 1.0
  0.70687923   0.70733424   0.00016485 1.0
  0.70705828   0.70715528   0.00003667 1.0
  0.70721302   0.70700053   0.00007795 1.0
  0.70730307   0.70691042   0.00014407 1.0
  0.70732616   0.70688732   0.00016254 1.0
  0.70729268   0.70692082   0.00013656 1.0
  0.70719685   0.70701670   0.00006554 1.0
  0.70711717   0.70709639   0.00000722 1.0
  0.70707213   0.70714143   0.00002454 1.0
  0.70705654   0.70715701   0.00003695 1.0
  0.70706347   0.70715009   0.00003118 1.0
  0.70710104   0.70711253   0.00000460 1.0
  0.70713279   0.70708077   0.00001879 1.0
  0.70714604   0.70706752   0.00002945 1.0
  0.70715396   0.70705959   0.00003421 1.0
  0.70715880   0.70705476   0.00003725 1.0
  0.70715798   0.70705558   0.00003964 1.0
  0.70715798   0.70705558   0.00003964 1.0
  0.70704400   0.70716951   0.00026011 1.0
  0.70705025   0.70716328   0.00021290 1.0
  0.70707091   0.70714263   0.00014085 1.0
  0.70710067   0.70711289   0.00002421 1.0
  0.70715494   0.70705860   0.00019002 1.0
  0.70729269   0.70692046   0.00071459 1.0
  0.70742720   0.70678511   0.00124636 1.0
  0.70746631   0.70674569   0.00139707 1.0
  0.70740650   0.70680598   0.00116407 1.0
  0.70724755   0.70696577   0.00054595 1.0
  0.70698659   0.70722680   0.00047060 1.0
  0.70672365   0.70748815   0.00148685 1.0
  0.70659592   0.70761449   0.00198517 1.0
  0.70660291   0.70760762   0.00194562 1.0
  0.70675612   0.70745595   0.00136588 1.0
  0.70702822   0.70718527   0.00030026 1.0
  0.70727060   0.70694263   0.00064180 1.0
  0.70741109   0.70680134   0.00118659 1.0
  0.70745135   0.70676076   0.00134683 1.0
  0.70739383   0.70681872   0.00112423 1.0
  0.70724640   0.70696693   0.00054191 1.0
  0.70712122   0.70709234   0.00006034 1.0
  0.70705364   0.70715989   0.00020267 1.0
  0.70702879   0.70718469   0.00030805 1.0
  0.70704208   0.70717143   0.00025349 1.0
  0.70709414   0.70711942   0.00004222 1.0
  0.70714964   0.70706390   0.00016016 1.0
  0.70716740   0.70704612   0.00023993 1.0
  0.70717989   0.70703361   0.00028335 1.0
  0.70718767   0.70702582   0.00031020 1.0
  0.70719262   0.70702086   0.00032617 1.0
  0.70719262   0.70702086   0.00032617 1.0
  0.70711668   0.70709687   0.00013336 1.0
  0.70711320   0.70710035   0.00010854 1.0
  0.70711150   0.70710206   0.00007231 1.0
  0.70710765   0.70710591   0.00001221 1.0
  0.70709907   0.70711448   0.00009730 1.0
  0.70708605   0.70712741   0.00036476 1.0
  0.70706737   0.70714590   0.00063762 1.0
  0.70706387   0.70714933   0.00071413 1.0
  0.70706970   0.70714361   0.00059445 1.0
  0.70709059   0.70712292   0.00027933 1.0
  0.70712177   0.70709175   0.00024050 1.0
  0.70715046   0.70706269   0.00075960 1.0
  0.70716878   0.70704405   0.00101438 1.0
  0.70716533   0.70704753   0.00099389 1.0
  0.70714818   0.70706503   0.00069810 1.0
  0.70711601   0.70709753   0.00015359 1.0
  0.70708827   0.70712522   0.00032769 1.0
  0.70707085   0.70714245   0.00060586 1.0
  0.70706388   0.70714934   0.00068843 1.0
  0.70707433   0.70713900   0.00057410 1.0
  0.70709059   0.70712292   0.00027702 1.0
  0.70710447   0.70710909   0.00003046 1.0
  0.70711313   0.70710043   0.00010350 1.0
  0.70711659   0.70709696   0.00015720 1.0
  0.70711370   0.70709985   0.00012992 1.0
  0.70710736   0.70710621   0.00002140 1.0
  0.70710148   0.70711208   0.00008189 1.0
  0.70709980   0.70711376   0.00012248 1.0
  0.70709828   0.70711527   0.00014462 1.0
  0.70709714   0.70711641   0.00015831 1.0
  0.70709851   0.70711503   0.00016763 1.0
  0.70709851   0.70711503   0.00016763 1.0
  0.70702418   0.70718933   0.00026506 1.0
  0.70703997   0.70717355   0.00021772 1.0
  0.70706242   0.70715113   0.00014321 1.0
  0.70709893   0.70711463   0.00002487 1.0
  0.70716649   0.70704704   0.00019412 1.0
  0.70733173   0.70688138   0.00072838 1.0
  0.70749644   0.70671577   0.00127090 1.0
  0.70754361   0.70666824   0.00142507 1.0
  0.70747112   0.70674126   0.00118659 1.0
  0.70727641   0.70693689   0.00055692 1.0
  0.70695886   0.70725450   0.00047839 1.0
  0.70664042   0.70757122   0.00151486 1.0
  0.70648029   0.70772983   0.00202299 1.0
  0.70649422   0.70771604   0.00198142 1.0
  0.70667636   0.70753557   0.00139245 1.0
  0.70701320   0.70720028   0.00030661 1.0
  0.70730754   0.70690566   0.00065306 1.0
  0.70748149   0.70673084   0.00120767 1.0
  0.70752982   0.70668216   0.00137195 1.0
  0.70745961   0.70675285   0.00114416 1.0
  0.70727757   0.70693574   0.00055201 1.0
  0.70712641   0.70708715   0.00006092 1.0
  0.70704325   0.70717028   0.00020700 1.0
  0.70701031   0.70720317   0.00031325 1.0
  0.70702534   0.70718817   0.00025897 1.0
  0.70709529   0.70711827   0.00004280 1.0
  0.70715590   0.70705764   0.00016353 1.0
  0.70718266   0.70703085   0.00024451 1.0
  0.70719545   0.70701804   0.00028830 1.0
  0.70720436   0.70700912   0.00031598 1.0
  0.70720748   0.70700599   0.00033360 1.0
  0.70720748   0.70700599   0.00033360 1.0
  0.70716623   0.70704732   0.00012634 1.0
  0.70715430   0.70705925   0.00010517 1.0
  0.70713886   0.70707469   0.00006889 1.0
  0.70711202   0.70710155   0.00001178 1.0
  0.70706535   0.70714820   0.00009333 1.0
  0.70694588   0.70726756   0.00035040 1.0
  0.70682712   0.70738606   0.00061192 1.0
  0.70679243   0.70742066   0.00068540 1.0
  0.70684562   0.70736761   0.00057121 1.0
  0.70698433   0.70722916   0.00026792 1.0
  0.70721415   0.70699935   0.00023025 1.0
  0.70743796   0.70677508   0.00072914 1.0
  0.70755207   0.70666054   0.00097310 1.0
  0.70754401   0.70666864   0.00095332 1.0
  0.70741374   0.70679937   0.00066981 1.0
  0.70717491   0.70703863   0.00014782 1.0
  0.70696238   0.70725109   0.00031397 1.0
  0.70683984   0.70737338   0.00058146 1.0
  0.70680284   0.70741028   0.00065970 1.0
  0.70685256   0.70736069   0.00055014 1.0
  0.70698664   0.70722685   0.00026561 1.0
  0.70709061   0.70712295   0.00002930 1.0
  0.70715412   0.70705943   0.00009989 1.0
  0.70717664   0.70703690   0.00015071 1.0
  0.70716394   0.70704961   0.00012443 1.0
  0.70711540   0.70709816   0.00002025 1.0
  0.70707113   0.70714242   0.00007839 1.0
  0.70705181   0.70716174   0.00011789 1.0
  0.70704449   0.70716906   0.00013884 1.0
  0.70703612   0.70717742   0.00015237 1.0
  0.70703410   0.70717943   0.00016061 1.0
  0.70703410   0.70717943   0.00016061 1.0
  0.70720256   0.70701099   0.00003262 1.0
  0.70718513   0.70702842   0.00002665 1.0
  0.70715585   0.70705771   0.00001758 1.0
  0.70711725   0.70709631   0.00000316 1.0
  0.70703645   0.70717710   0.00002396 1.0
  0.70684824   0.70736522   0.00008932 1.0
  0.70665624   0.70755702   0.00015547 1.0
  0.70660077   0.70761241   0.00017467 1.0
  0.70668629   0.70752701   0.00014464 1.0
  0.70690696   0.70730654   0.00006828 1.0
  0.70727768   0.70693584   0.00005933 1.0
  0.70764472   0.70656841   0.00018651 1.0
  0.70782471   0.70638808   0.00024887 1.0
  0.70781086   0.70640196   0.00024396 1.0
  0.70759972   0.70661348   0.00017106 1.0
  0.70721533   0.70699822   0.00003710 1.0
  0.70687577   0.70733771   0.00008069 1.0
  0.70667589   0.70753740   0.00014955 1.0
  0.70662157   0.70759164   0.00016991 1.0
  0.70669900   0.70751432   0.00014104 1.0
  0.70691043   0.70730308   0.00006828 1.0
  0.70708484   0.70712872   0.00000780 1.0
  0.70718126   0.70703229   0.00002512 1.0
  0.70721879   0.70699475   0.00003898 1.0
  0.70719685   0.70701670   0.00003161 1.0
  0.70712344   0.70709012   0.00000546 1.0
  0.70704849   0.70716506   0.00001999 1.0
  0.70701996   0.70719359   0.00002988 1.0
  0.70700391   0.70720964   0.00003563 1.0
  0.70699438   0.70721916   0.00003853 1.0
  0.70699282   0.70722072   0.00004129 1.0
  0.70699282   0.70722072   0.00004129 1.0
  0.70695813   0.70725540   0.00005780 1.0
  0.70698346   0.70723008   0.00004785 1.0
  0.70702656   0.70718699   0.00003232 1.0
  0.70709282   0.70712074   0.00000545 1.0
  0.70721660   0.70699695   0.00004287 1.0
  0.70751450   0.70669881   0.00015940 1.0
  0.70781893   0.70639386   0.00028005 1.0
  0.70790429   0.70630830   0.00031325 1.0
  0.70777278   0.70644010   0.00026099 1.0
  0.70741851   0.70679490   0.00012184 1.0
  0.70683765   0.70737580   0.00010509 1.0
  0.70625743   0.70795504   0.00033490 1.0
  0.70597059   0.70824101   0.00044750 1.0
  0.70599489   0.70821680   0.00043768 1.0
  0.70632680   0.70788583   0.00030632 1.0
  0.70693353   0.70727998   0.00006698 1.0
  0.70747392   0.70673944   0.00014464 1.0
  0.70778317   0.70642970   0.00026792 1.0
  0.70787545   0.70633721   0.00030401 1.0
  0.70774856   0.70646438   0.00025464 1.0
  0.70741736   0.70679606   0.00012212 1.0
  0.70714027   0.70707329   0.00001415 1.0
  0.70699013   0.70722341   0.00004648 1.0
  0.70693180   0.70728172   0.00006929 1.0
  0.70696068   0.70725285   0.00005630 1.0
  0.70708265   0.70713091   0.00001063 1.0
  0.70719829   0.70701525   0.00003685 1.0
  0.70724506   0.70696848   0.00005322 1.0
  0.70726814   0.70694539   0.00006370 1.0
  0.70728273   0.70693078   0.00007033 1.0
  0.70729667   0.70691683   0.00007184 1.0
  0.70729667   0.70691683   0.00007184 1.0
  0.70718272   0.70703078   0.00029438 1.0
  0.70716713   0.70704639   0.00024148 1.0
  0.70714641   0.70706714   0.00015984 1.0
  0.70711376   0.70709980   0.00002759 1.0
  0.70705378   0.70715975   0.00021555 1.0
  0.70690087   0.70731217   0.00080981 1.0
  0.70675030   0.70746167   0.00141337 1.0
  0.70670389   0.70750766   0.00158430 1.0
  0.70677349   0.70743868   0.00131940 1.0
  0.70694957   0.70726369   0.00061842 1.0
  0.70724178   0.70697155   0.00053296 1.0
  0.70752948   0.70668182   0.00168592 1.0
  0.70766948   0.70654005   0.00225065 1.0
  0.70765917   0.70655052   0.00220575 1.0
  0.70749616   0.70671549   0.00154850 1.0
  0.70719335   0.70702012   0.00034097 1.0
  0.70692411   0.70728904   0.00072798 1.0
  0.70677000   0.70744212   0.00134510 1.0
  0.70672129   0.70749041   0.00152742 1.0
  0.70678855   0.70742372   0.00127523 1.0
  0.70695188   0.70726138   0.00061423 1.0
  0.70709177   0.70712179   0.00006871 1.0
  0.70716335   0.70705017   0.00023082 1.0
  0.70719508   0.70701839   0.00034934 1.0
  0.70717777   0.70703573   0.00028770 1.0
  0.70711942   0.70709414   0.00004753 1.0
  0.70706197   0.70715156   0.00018159 1.0
  0.70703739   0.70717611   0.00027200 1.0
  0.70702558   0.70718790   0.00032110 1.0
  0.70701810   0.70719536   0.00035131 1.0
  0.70701094   0.70720251   0.00037117 1.0
  0.70701094   0.70720251   0.00037117 1.0
  0.70724549   0.70696804   0.00002931 1.0
  0.70722238   0.70699117   0.00002457 1.0
  0.70718322   0.70703034   0.00001616 1.0
  0.70712074   0.70709282   0.00000316 1.0
  0.70700273   0.70721082   0.00002192 1.0
  0.70671951   0.70749384   0.00008214 1.0
  0.70642856   0.70778434   0.00014363 1.0
  0.70634648   0.70786625   0.00016023 1.0
  0.70647480   0.70773819   0.00013338 1.0
  0.70680877   0.70740467   0.00006279 1.0
  0.70736311   0.70685036   0.00005500 1.0
  0.70791354   0.70629908   0.00017236 1.0
  0.70818456   0.70602732   0.00022967 1.0
  0.70816265   0.70604929   0.00022476 1.0
  0.70784779   0.70636498   0.00015792 1.0
  0.70727075   0.70694277   0.00003407 1.0
  0.70675793   0.70745546   0.00007478 1.0
  0.70646208   0.70775088   0.00013873 1.0
  0.70637654   0.70783625   0.00015662 1.0
  0.70649444   0.70771858   0.00013107 1.0
  0.70681223   0.70740120   0.00006337 1.0
  0.70707560   0.70713796   0.00000722 1.0
  0.70721533   0.70699822   0.00002339 1.0
  0.70727479   0.70693873   0.00003594 1.0
  0.70724535   0.70696819   0.00002930 1.0
  0.70712976   0.70708380   0.00000474 1.0
  0.70702007   0.70719348   0.00001794 1.0
  0.70697502   0.70723851   0.00002803 1.0
  0.70695388   0.70725964   0.00003232 1.0
  0.70693785   0.70727567   0.00003581 1.0
  0.70693005   0.70728347   0.00003798 1.0
  0.70693005   0.70728347   0.00003798 1.0
  0.70695813   0.70725540   0.00010900 1.0
  0.70698988   0.70722366   0.00009184 1.0
  0.70702939   0.70718416   0.00005969 1.0
  0.70709457   0.70711900   0.00001091 1.0
  0.70721082   0.70700273   0.00008092 1.0
  0.70750070   0.70671258   0.00030445 1.0
  0.70779578   0.70641691   0.00053123 1.0
  0.70787652   0.70633596   0.00059445 1.0
  0.70774965   0.70646316   0.00049514 1.0
  0.70740811   0.70680528   0.00023212 1.0
  0.70684688   0.70736656   0.00020094 1.0
  0.70628623   0.70792610   0.00063401 1.0
  0.70601089   0.70820047   0.00084563 1.0
  0.70603288   0.70817857   0.00083004 1.0
  0.70635446   0.70785806   0.00058146 1.0
  0.70693930   0.70727421   0.00012790 1.0
  0.70745889   0.70675444   0.00027399 1.0
  0.70776118   0.70645159   0.00050698 1.0
  0.70784768   0.70636487   0.00057540 1.0
  0.70772658   0.70648628   0.00047984 1.0
  0.70740580   0.70680760   0.00023183 1.0
  0.70713854   0.70707502   0.00002627 1.0
  0.70699591   0.70721763   0.00008719 1.0
  0.70693699   0.70727652   0.00013165 1.0
  0.70696587   0.70724765   0.00010769 1.0
  0.70708323   0.70713033   0.00001781 1.0
  0.70719637   0.70701718   0.00006792 1.0
  0.70723938   0.70697415   0.00010208 1.0
  0.70726341   0.70695010   0.00012032 1.0
  0.70727759   0.70693592   0.00013166 1.0
  0.70728511   0.70692839   0.00014038 1.0
  0.70728511   0.70692839   0.00014038 1.0
  0.70721905   0.70699445   0.00026671 1.0
  0.70720181   0.70701171   0.00021884 1.0
  0.70716811   0.70704543   0.00014474 1.0
  0.70711812   0.70709544   0.00002487 1.0
  0.70702391   0.70718961   0.00019556 1.0
  0.70679058   0.70742246   0.00073369 1.0
  0.70655860   0.70765338   0.00128057 1.0
  0.70649257   0.70771901   0.00143474 1.0
  0.70659450   0.70761768   0.00119555 1.0
  0.70686642   0.70734684   0.00056111 1.0
  0.70731454   0.70689880   0.00048214 1.0
  0.70776161   0.70644970   0.00152511 1.0
  0.70797784   0.70623171   0.00203714 1.0
  0.70796059   0.70624912   0.00199644 1.0
  0.70770750   0.70650416   0.00140183 1.0
  0.70723723   0.70697624   0.00030921 1.0
  0.70682479   0.70738835   0.00065725 1.0
  0.70658292   0.70762921   0.00121648 1.0
  0.70651112   0.70770060   0.00138104 1.0
  0.70660956   0.70760272   0.00115253 1.0
  0.70686758   0.70734568   0.00055562 1.0
  0.70708022   0.70713334   0.00006164 1.0
  0.70719568   0.70701784   0.00020874 1.0
  0.70724416   0.70696931   0.00031585 1.0
  0.70721819   0.70699531   0.00026013 1.0
  0.70712516   0.70708840   0.00004351 1.0
  0.70703596   0.70717758   0.00016474 1.0
  0.70700162   0.70721189   0.00024669 1.0
  0.70698123   0.70723225   0.00029031 1.0
  0.70697122   0.70724225   0.00031855 1.0
  0.70695974   0.70725371   0.00033525 1.0
  0.70695974   0.70725371   0.00033525 1.0
  0.70714311   0.70707045   0.00002931 1.0
  0.70713761   0.70707595   0.00002457 1.0
  0.70712566   0.70708791   0.00001616 1.0
  0.70711027   0.70710329   0.00000316 1.0
  0.70708077   0.70713279   0.00002192 1.0
  0.70700337   0.70721017   0.00008214 1.0
  0.70693122   0.70728229   0.00014349 1.0
  0.70690696   0.70730653   0.00016038 1.0
  0.70694161   0.70727190   0.00013396 1.0
  0.70702940   0.70718415   0.00006222 1.0
  0.70717376   0.70703980   0.00005384 1.0
  0.70731692   0.70689656   0.00017164 1.0
  0.70738964   0.70682377   0.00022851 1.0
  0.70738156   0.70683186   0.00022361 1.0
  0.70730191   0.70691158   0.00015735 1.0
  0.70714951   0.70706405   0.00003407 1.0