# vtk DataFile Version 3.0
trk2vtk output
ASCII
DATASET POLYDATA
POINTS 6394 float
 58.95570755  26.93631744   0.99865288
 59.18482590  26.76062012   0.99867016
 59.77396774  26.30878830   0.99870622
 60.57580185  25.69372940   0.99873883
 61.44300079  25.02834320   0.99874479
 62.22823715  24.42553329   0.99870181
 62.88637543  23.91964722   0.99856693
 63.54080200  23.41596985   0.99833184
 64.19512939  22.91217804   0.99806911
 64.84960175  22.40856552   0.99784982
 65.50443268  21.90542603   0.99774754
 66.15986633  21.40306854   0.99783695
 66.81589508  20.90149307   0.99811900
 67.47222137  20.40030098   0.99849486
 68.12851715  19.89907646   0.99886280
 68.78447723  19.39740753   0.99912113
 69.43981171  18.89492226   0.99917740
 70.09458923  18.39171028   0.99905443
 70.74904633  17.88808060   0.99882871
 71.40341187  17.38432693   0.99857241
 72.05790710  16.88074493   0.99835855
 72.71274567  16.37760925   0.99825531
 73.36786652  15.87484360   0.99824345
 74.02313995  15.37228012   0.99828196
 74.67848206  14.86979675   0.99834025
 75.33378601  14.36727238   0.99838865
 75.99237823  13.86196995   0.99839658
 76.77763367  13.25918674   0.99836051
 77.64462280  12.59353256   0.99830025
 78.44615173  11.97807503   0.99823505
 79.03501892  11.52588367   0.99818271
 79.26401520  11.35002708   0.99816096
 59.03887177  27.04470253   2.30888915
 59.26792145  26.86890984   2.30891824
 59.85691071  26.41688538   2.30897999
 60.65860748  25.80165291   2.30903530
 61.52578354  25.13623428   2.30904579
 62.31119537  24.53365707   2.30897260
 62.96989822  24.02850151   2.30874157
 63.62529755  23.52609444   2.30834031
 64.28071594  23.02372360   2.30789089
 64.93609619  22.52129555   2.30751657
 65.59135437  22.01871300   2.30734086
 66.24642181  21.51587677   2.30749130
 66.90129852  21.01278496   2.30796909
 67.55606842  20.50956917   2.30860662
 68.21085358  20.00636482   2.30923200
 68.86574554  19.50330353   2.30967045
 69.52084351  19.00050926   2.30976725
 70.17612457  18.49795151   2.30956197
 70.83150482  17.99552917   2.30918097
 71.48692322  17.49314690   2.30874896
 72.14229584  16.99071121   2.30838823
 72.79755402  16.48812675   2.30821443
 73.45272064  15.98542213   2.30819511
 74.10784149  15.48265266   2.30826092
 74.76293945  14.97985649   2.30835962
 75.41804504  14.47707367   2.30844116
 76.07660675  13.97172832   2.30845499
 76.86200714  13.36914158   2.30839276
 77.72924805  12.70381069   2.30829096
 78.53104401  12.08870697   2.30817938
 79.12013245  11.63680077   2.30808949
 79.34922028  11.46106052   2.30805302
 59.26250839  27.33614922   1.99486756
 59.49157333  27.16037941   1.99492884
 60.08060074  26.70840263   1.99505770
 60.88233185  26.09321022   1.99517334
 61.74951172  25.42780113   1.99519503
 62.53488159  24.82516670   1.99504197
 63.19345093  24.31983566   1.99455893
 63.84860992  23.81712341   1.99372029
 64.50376892  23.31441116   1.99278033
 65.15893555  22.81169891   1.99199748
 65.81409454  22.30898285   1.99163008
 66.46924591  21.80626106   1.99194610
 67.12438965  21.30353355   1.99294579
 67.77954102  20.80080414   1.99428082
 68.43468475  20.29807281   1.99558866
 69.08983612  19.79534721   1.99650741
 69.74498749  19.29262733   1.99670982
 70.40014648  18.78991318   1.99627817
 71.05531311  18.28720093   1.99548101
 71.71047211  17.78449059   1.99457514
 72.36563873  17.28178024   1.99381948
 73.02079773  16.77906418   1.99345553
 73.67594910  16.27634430   1.99341452
 74.33110809  15.77362442   1.99355137
 74.98626709  15.27090263   1.99375832
 75.64141846  14.76818180   1.99392867
 76.29998779  14.26284695   1.99395728
 77.08535767  13.66021252   1.99382842
 77.95253754  12.99480438   1.99361455
 78.75427246  12.37961578   1.99338138
 79.34329987  11.92763996   1.99319422
 79.57236481  11.75187206   1.99311721
 58.77106094  26.69568443   2.18303871
 59.00011826  26.51990318   2.18302989
 59.58912277  26.06789780   2.18301058
 60.39083481  25.45268059   2.18299317
 61.25800705  24.78726578   2.18298984
 62.04340363  24.18466568   2.18301296
 62.70205307  23.67944145   2.18308425
 63.35735321  23.17691231   2.18320870
 64.01268005  22.67440605   2.18334794
 64.66796875  22.17186546   2.18346405
 65.32318878  21.66922951   2.18351841
 65.97828674  21.16643906   2.18347144
 66.63327026  20.66349220   2.18332314
 67.28819275  20.16047096   2.18312454
 67.94312286  19.65745354   2.18293047
 68.59812164  19.15452766   2.18279433
 69.25324249  18.65176201   2.18276405
 69.90847015  18.14914131   2.18282843
 70.56376648  17.64660263   2.18294740
 71.21908569  17.14408875   2.18308163
 71.87437439  16.64154243   2.18319440
 72.52958679  16.13890457   2.18324852
 73.18475342  15.63619614   2.18325448
 73.83988953  15.13344383   2.18323421
 74.49500275  14.63067818   2.18320370
 75.15013123  14.12792015   2.18317795
 75.80869293  13.62257957   2.18317413
 76.59408569  13.01997375   2.18319273
 77.46130371  12.35461235   2.18322492
 78.26307678  11.73947525   2.18325949
 78.85213470  11.28754139   2.18328714
 79.08121490  11.11179066   2.18329859
 58.30911255  26.09366035   2.29219365
 58.53816223  25.91786957   2.29211855
 59.12715530  25.46584511   2.29196048
 59.92885590  24.85061455   2.29181814
 60.79602814  24.18519592   2.29179168
 61.58143997  23.58261490   2.29197979
 62.24013901  23.07745171   2.29257298
 62.89552307  22.57503128   2.29360223
 63.55093384  22.07264709   2.29475594
 64.20630646  21.57020569   2.29571724
 64.86155701  21.06761742   2.29616809
 65.51663208  20.56478882   2.29577947
 66.17151642  20.06171608   2.29455161
 66.82630157  19.55852509   2.29291224
 67.48110199  19.05534363   2.29130554
 68.13600922  18.55229950   2.29017758
 68.79110718  18.04951096   2.28992963
 69.44638062  17.54694366   2.29045963
 70.10175323  17.04450607   2.29143953
 70.75715637  16.54210663   2.29255176
 71.41251373  16.03965378   2.29348016
 72.06777191  15.53706360   2.29392767
 72.72293854  15.03435707   2.29397750
 73.37805939  14.53158951   2.29381013
 74.03315735  14.02879715   2.29355574
 74.68827057  13.52601719   2.29334641
 75.34682465  13.02067184   2.29331136
 76.13223267  12.41808224   2.29346991
 76.99947357  11.75274849   2.29373217
 77.80126953  11.13764000   2.29401851
 78.39034271  10.68572903   2.29424882
 78.61943054  10.50998783   2.29434299
 59.10316467  27.12848854   1.95033395
 59.33223343  26.95272255   1.95037246
 59.92126465  26.50075150   1.95045304
 60.72299957  25.88556671   1.95052612
 61.59017944  25.22015762   1.95053947
 62.37554169  24.61751556   1.95044315
 63.03409576  24.11215973   1.95014036
 63.68922424  23.60940552   1.94961381
 64.34434509  23.10664749   1.94902408
 64.99947357  22.60389328   1.94853318
 65.65461731  22.10115814   1.94830251
 66.30978394  21.59845161   1.94850111
 66.96497345  21.09577560   1.94912839
 67.62017059  20.59311295   1.94996607
 68.27537537  20.09045029   1.95078683
 68.93055725  19.58777046   1.95136333
 69.58572388  19.08506012   1.95149016
 70.24086761  18.58232307   1.95121956
 70.89599609  18.07957077   1.95071924
 71.55112457  17.57681465   1.95015073
 72.20625305  17.07406425   1.94967663
 72.86139679  16.57132912   1.94944787
 73.51655579  16.06860733   1.94942272
 74.17171478  15.56589508   1.94950819
 74.82688141  15.06318474   1.94963801
 75.48204041  14.56047153   1.94974530
 76.14060974  14.05513859   1.94976306
 76.92597198  13.45249748   1.94968200
 77.79314423  12.78707886   1.94954813
 78.59486389  12.17187881   1.94940197
 79.18389130  11.71989441   1.94928443
 79.41294861  11.54412174   1.94923604
 59.36973572  27.47589493   2.36201715
 59.59878540  27.30010033   2.36209369
 60.18777084  26.84806633   2.36225533
 60.98946381  26.23282433   2.36240005
 61.85663605  25.56740570   2.36242723
 62.64205551  24.96483612   2.36223507
 63.30078125  24.45970917   2.36163044
 63.95621490  23.95735359   2.36058092
 64.61168671  23.45503998   2.35940409
 65.26709747  22.95265961   2.35842419
 65.92237854  22.45009804   2.35796428
 66.57742310  21.94724464   2.35835934
 67.23224640  21.44409180   2.35961032
 67.88695526  20.94079590   2.36128092
 68.54167938  20.43751335   2.36291718
 69.19652557  19.93439674   2.36406708
 69.85161591  19.43159103   2.36432028
 70.50691986  18.92905998   2.36378098
 71.16233826  18.42668724   2.36278367
 71.81779480  17.92436218   2.36165071
 72.47320557  17.42197037   2.36070585
 73.12847900  16.91940880   2.36025000
 73.78365326  16.41670799   2.36019969
 74.43876648  15.91392899   2.36037064
 75.09384918  15.41111946   2.36062932
 75.74895477  14.90832615   2.36084318
 76.40750885  14.40297890   2.36087871
 77.19292450  13.80039978   2.36071682
 78.06017303  13.13508129   2.36044955
 78.86198425  12.51999092   2.36015821
 79.45107269  12.06809521   2.35992360
 79.68016052  11.89235973   2.35982728
 58.57731247  26.44318390   1.71837449
 58.80639267  26.26743507   1.71833801
 59.39545059  25.81549835   1.71825993
 60.19720840  25.20034409   1.71819031
 61.06439209  24.53494072   1.71817744
 61.84972763  23.93225861   1.71826982
 62.50817871  23.42677307   1.71856070
 63.16313171  22.92379570   1.71906602
 63.81806946  22.42078590   1.71963203
 64.47303772  21.91782570   1.72010374
 65.12810516  21.41499329   1.72032499
 65.78334045  20.91237259   1.72013485
 66.43873596  20.40996170   1.71953273
 67.09420776  19.90765762   1.71872914
 67.74967194  19.40534401   1.71794188
 68.40504456  18.90290833   1.71738875
 69.06024933  18.40025139   1.71726668
 69.71530151  17.89739990   1.71752596
 70.37026978  17.39443398   1.71800613
 71.02520752  16.89143372   1.71855092
 71.68018341  16.38847923   1.71900523
 72.33525848  15.88564682   1.71922457
 72.99040222  15.38291550   1.71924877
 73.64559174  14.88023853   1.71916628
 74.30079651  14.37758350   1.71904182
 74.95599365  13.87491703   1.71893907
 75.61456299  13.36959076   1.71892226
 76.39990234  12.76691628   1.71899986
 77.26703644  12.10143948   1.71912873
 78.06871033  11.48617744   1.71926904
[...]
POINT_DATA 6394
COLOR_SCALARS tangents 4
  0.79353958   0.60851863   0.00005987 1.0
  0.79350463   0.60856421   0.00004857 1.0
  0.79345372   0.60863059   0.00003226 1.0
  0.79337055   0.60873900   0.00000545 1.0
  0.79321825   0.60893744   0.00004341 1.0
  0.79284174   0.60942755   0.00016249 1.0
  0.79246457   0.60991788   0.00028467 1.0
  0.79235289   0.61006294   0.00031816 1.0
  0.79252315   0.60984177   0.00026554 1.0
  0.79296130   0.60927199   0.00012386 1.0
  0.79368917   0.60832350   0.00010827 1.0
  0.79441246   0.60737857   0.00034155 1.0
  0.79476921   0.60691160   0.00045515 1.0
  0.79473666   0.60695423   0.00044555 1.0
  0.79432718   0.60749011   0.00031282 1.0
  0.79357000   0.60847896   0.00006814 1.0
  0.79289488   0.60935842   0.00014890 1.0
  0.79250623   0.60986376   0.00027334 1.0
  0.79239241   0.61001161   0.00031036 1.0
  0.79255132   0.60980517   0.00025897 1.0
  0.79296696   0.60926463   0.00012501 1.0
  0.79331021   0.60881764   0.00001436 1.0
  0.79349691   0.60857428   0.00004663 1.0
  0.79357454   0.60847305   0.00007059 1.0
  0.79353345   0.60852662   0.00005861 1.0
  0.79338427   0.60872112   0.00000955 1.0
  0.79323842   0.60891116   0.00003643 1.0
  0.79318098   0.60898599   0.00005513 1.0
  0.79315125   0.60902470   0.00006453 1.0
  0.79313364   0.60904764   0.00007049 1.0
  0.79311648   0.60906999   0.00007535 1.0
  0.79311648   0.60906999   0.00007535 1.0
  0.79329196   0.60884141   0.00010074 1.0
  0.79330318   0.60882679   0.00008317 1.0
  0.79332041   0.60880434   0.00005474 1.0
  0.79334846   0.60876778   0.00000960 1.0
  0.79339748   0.60870389   0.00007394 1.0
  0.79351904   0.60854535   0.00027831 1.0
  0.79364470   0.60838133   0.00048590 1.0
  0.79367442   0.60834252   0.00054422 1.0
  0.79362390   0.60840850   0.00045327 1.0
  0.79347889   0.60859774   0.00021278 1.0
  0.79324494   0.60890264   0.00018218 1.0
  0.79300964   0.60920881   0.00057857 1.0
  0.79288899   0.60936561   0.00077201 1.0
  0.79290256   0.60934798   0.00075729 1.0
  0.79303437   0.60917666   0.00053094 1.0
  0.79328320   0.60885282   0.00011722 1.0
  0.79350365   0.60856544   0.00024858 1.0
  0.79362724   0.60840413   0.00046136 1.0
  0.79366774   0.60835126   0.00052314 1.0
  0.79361603   0.60841878   0.00043682 1.0
  0.79347778   0.60859919   0.00021047 1.0
  0.79336645   0.60874435   0.00002339 1.0
  0.79330797   0.60882054   0.00007968 1.0
  0.79328208   0.60885427   0.00011953 1.0
  0.79329332   0.60883964   0.00009874 1.0
  0.79334568   0.60877142   0.00001666 1.0
  0.79338855   0.60871554   0.00006286 1.0
  0.79340921   0.60868860   0.00009314 1.0
  0.79341831   0.60867674   0.00011041 1.0
  0.79342960   0.60866202   0.00012106 1.0
  0.79342865   0.60866325   0.00012634 1.0
  0.79342865   0.60866325   0.00012634 1.0
  0.79334982   0.60876598   0.00021222 1.0
  0.79335323   0.60876155   0.00017357 1.0
  0.79335214   0.60876298   0.00011442 1.0
  0.79335397   0.60876061   0.00001985 1.0
  0.79335385   0.60876074   0.00015462 1.0
  0.79335727   0.60875603   0.00058190 1.0
  0.79335815   0.60875431   0.00101554 1.0
  0.79335805   0.60875423   0.00113824 1.0
  0.79336163   0.60874989   0.00094797 1.0
  0.79335625   0.60875747   0.00044490 1.0
  0.79334950   0.60876631   0.00038269 1.0
  0.79334221   0.60877473   0.00121057 1.0
  0.79334406   0.60877137   0.00161662 1.0
  0.79333957   0.60877732   0.00158372 1.0
  0.79334684   0.60876888   0.00111254 1.0
  0.79335065   0.60876488   0.00024512 1.0
  0.79335734   0.60875599   0.00052271 1.0
  0.79336162   0.60874988   0.00096530 1.0
  0.79335920   0.60875280   0.00109696 1.0
  0.79336277   0.60874845   0.00091506 1.0
  0.79335625   0.60875747   0.00044072 1.0
  0.79335068   0.60876490   0.00004966 1.0
  0.79335409   0.60876043   0.00016572 1.0
  0.79335296   0.60876187   0.00025060 1.0
  0.79335010   0.60876561   0.00020628 1.0
  0.79335518   0.60875902   0.00003447 1.0
  0.79335386   0.60876074   0.00013018 1.0
  0.79335438   0.60876004   0.00019565 1.0
  0.79335535   0.60875877   0.00023074 1.0
  0.79335384   0.60876073   0.00025208 1.0
  0.79335300   0.60876182   0.00026672 1.0
  0.79335300   0.60876182   0.00026672 1.0
  0.79332090   0.60880370   0.00003055 1.0
  0.79332320   0.60880070   0.00002601 1.0
  0.79333330   0.60878754   0.00001722 1.0
  0.79334886   0.60876727   0.00000305 1.0
  0.79338061   0.60872589   0.00002336 1.0
  0.79345530   0.60862853   0.00008588 1.0
  0.79352895   0.60853249   0.00015071 1.0
  0.79355430   0.60849942   0.00016861 1.0
  0.79351713   0.60854790   0.00014060 1.0
  0.79343056   0.60866077   0.00006583 1.0
  0.79328543   0.60884992   0.00005688 1.0
  0.79314255   0.60903601   0.00017958 1.0
  0.79307161   0.60912837   0.00024050 1.0
  0.79307727   0.60912100   0.00023501 1.0
  0.79316168   0.60901110   0.00016485 1.0
  0.79331021   0.60881764   0.00003667 1.0
  0.79344291   0.60864468   0.00007795 1.0
  0.79352166   0.60854199   0.00014407 1.0
  0.79354642   0.60850970   0.00016254 1.0
  0.79351378   0.60855227   0.00013656 1.0
  0.79342603   0.60866669   0.00006554 1.0
  0.79336422   0.60874725   0.00000722 1.0
  0.79332487   0.60879854   0.00002454 1.0
  0.79330678   0.60882210   0.00003696 1.0
  0.79331809   0.60880736   0.00003118 1.0
  0.79334845   0.60876780   0.00000460 1.0
  0.79337639   0.60873139   0.00001879 1.0
  0.79338797   0.60871629   0.00002945 1.0
  0.79339397   0.60870848   0.00003421 1.0
  0.79339639   0.60870532   0.00003725 1.0
  0.79340132   0.60869889   0.00003964 1.0
  0.79340132   0.60869889   0.00003964 1.0
  0.79329513   0.60883723   0.00026011 1.0
  0.79330507   0.60882430   0.00021290 1.0
  0.79332272   0.60880132   0.00014085 1.0
  0.79334717   0.60876947   0.00002421 1.0
  0.79339561   0.60870631   0.00019002 1.0
  0.79351273   0.60855323   0.00071459 1.0
  0.79362954   0.60840004   0.00124636 1.0
  0.79366254   0.60835666   0.00139707 1.0
  0.79361222   0.60842279   0.00116407 1.0
  0.79347202   0.60860648   0.00054595 1.0
  0.79325276   0.60889231   0.00047060 1.0
  0.79302349   0.60918925   0.00148686 1.0
  0.79290903   0.60933679   0.00198518 1.0
  0.79292154   0.60932065   0.00194561 1.0
  0.79305065   0.60915417   0.00136589 1.0
  0.79328651   0.60884844   0.00030026 1.0
  0.79349451   0.60857707   0.00064180 1.0
  0.79361443   0.60841987   0.00118660 1.0
  0.79365025   0.60837280   0.00134683 1.0
  0.79359872   0.60844047   0.00112424 1.0
  0.79347433   0.60860348   0.00054191 1.0
  0.79336533   0.60874580   0.00006034 1.0
  0.79330908   0.60881908   0.00020267 1.0
  0.79328428   0.60885134   0.00030805 1.0
  0.79329839   0.60883298   0.00025349 1.0
  0.79334227   0.60877586   0.00004222 1.0
  0.79339000   0.60871363   0.00016016 1.0
  0.79340793   0.60869023   0.00023993 1.0
  0.79341600   0.60867969   0.00028335 1.0
  0.79341885   0.60867596   0.00031021 1.0
  0.79342702   0.60866530   0.00032617 1.0
  0.79342702   0.60866530   0.00032617 1.0
  0.79336111   0.60875129   0.00013336 1.0
  0.79335886   0.60875422   0.00010854 1.0
  0.79335719   0.60875641   0.00007231 1.0
  0.79335397   0.60876061   0.00001221 1.0
  0.79334728   0.60876932   0.00009730 1.0
  0.79333611   0.60878377   0.00036476 1.0
  0.79332016   0.60880433   0.00063762 1.0
  0.79331447   0.60881167   0.00071413 1.0
  0.79332019   0.60880434   0.00059445 1.0
  0.79333830   0.60878097   0.00027933 1.0
  0.79336531   0.60874578   0.00024050 1.0
  0.79339322   0.60870898   0.00075960 1.0
  0.79340427   0.60869420   0.00101438 1.0
  0.79340771   0.60868975   0.00099388 1.0
  0.79338760   0.60871637   0.00069810 1.0
  0.79336309   0.60874870   0.00015359 1.0
  0.79333717   0.60878241   0.00032769 1.0
  0.79332130   0.60880289   0.00060586 1.0
  0.79331902   0.60880576   0.00068843 1.0
  0.79332243   0.60880144   0.00057410 1.0
  0.79333830   0.60878097   0.00027702 1.0
  0.79335298   0.60876189   0.00003046 1.0
  0.79335856   0.60875462   0.00010350 1.0
  0.79336309   0.60874870   0.00015720 1.0
  0.79335800   0.60875534   0.00012992 1.0
  0.79335629   0.60875758   0.00002140 1.0
  0.79334775   0.60876871   0.00008189 1.0
  0.79334717   0.60876946   0.00012248 1.0
  0.79334430   0.60877320   0.00014462 1.0
  0.79334827   0.60876802   0.00015831 1.0
  0.79333525   0.60878498   0.00016763 1.0
  0.79333525   0.60878498   0.00016763 1.0
  0.79328874   0.60884554   0.00026506 1.0
  0.79329505   0.60883734   0.00021772 1.0
  0.79331445   0.60881209   0.00014321 1.0
  0.79334717   0.60876947   0.00002487 1.0
  0.79340405   0.60869531   0.00019412 1.0
  0.79354572   0.60851020   0.00072838 1.0
  0.79368965   0.60832156   0.00127090 1.0
  0.79373111   0.60826712   0.00142506 1.0
  0.79366498   0.60835392   0.00118660 1.0
  0.79350132   0.60856827   0.00055692 1.0
  0.79322455   0.60892905   0.00047840 1.0
  0.79294915   0.60928593   0.00151486 1.0
  0.79281329   0.60946124   0.00202300 1.0
  0.79282803   0.60944220   0.00198141 1.0
  0.79298079   0.60924505   0.00139245 1.0
  0.79327305   0.60886598   0.00030661 1.0
  0.79352938   0.60853159   0.00065306 1.0
  0.79367284   0.60834362   0.00120768 1.0
  0.79371765   0.60828482   0.00137195 1.0
  0.79365833   0.60836268   0.00114415 1.0
  0.79349790   0.60857274   0.00055202 1.0
  0.79337210   0.60873698   0.00006092 1.0
  0.79329896   0.60883226   0.00020700 1.0
  0.79326739   0.60887335   0.00031325 1.0
  0.79328716   0.60884762   0.00025897 1.0
  0.79334116   0.60877730   0.00004280 1.0
  0.79339797   0.60870324   0.00016353 1.0
  0.79341726   0.60867808   0.00024451 1.0
  0.79343025   0.60866111   0.00028830 1.0
  0.79343639   0.60865310   0.00031599 1.0
  0.79343659   0.60865283   0.00033360 1.0
  0.79343659   0.60865283   0.00033360 1.0
  0.79340451   0.60869473   0.00012634 1.0
  0.79339452   0.60870775   0.00010517 1.0
  0.79338017   0.60872646   0.00006889 1.0
  0.79335779   0.60875563   0.00001178 1.0
  0.79331774   0.60880781   0.00009333 1.0
  0.79321465   0.60894202   0.00035040 1.0
  0.79311086   0.60907700   0.00061192 1.0
  0.79308499   0.60911060   0.00068539 1.0
  0.79312777   0.60905502   0.00057121 1.0
  0.79324716   0.60889972   0.00026792 1.0
  0.79344631   0.60864020   0.00023025 1.0
  0.79364065   0.60838638   0.00072913 1.0
  0.79373712   0.60826017   0.00097310 1.0
  0.79372814   0.60827192   0.00095332 1.0
  0.79361592   0.60841870   0.00066981 1.0
  0.79341144   0.60868568   0.00014782 1.0
  0.79322914   0.60892317   0.00031397 1.0
  0.79312442   0.60905937   0.00058146 1.0
  0.79309059   0.60910335   0.00065970 1.0
  0.79313455   0.60904620   0.00055014 1.0
  0.79325059   0.60889526   0.00026561 1.0
  0.79334056   0.60877808   0.00002930 1.0
  0.79339289   0.60870988   0.00009989 1.0
  0.79341256   0.60868423   0.00015071 1.0
  0.79340244   0.60869742   0.00012443 1.0
  0.79336018   0.60875252   0.00002025 1.0
  0.79332289   0.60880110   0.00007839 1.0
  0.79330853   0.60881982   0.00011789 1.0
  0.79329788   0.60883368   0.00013884 1.0
  0.79329316   0.60883983   0.00015237 1.0
  0.79329195   0.60884140   0.00016061 1.0
  0.79329195   0.60884140   0.00016061 1.0
  0.79343344   0.60865702   0.00003262 1.0
  0.79341893   0.60867594   0.00002665 1.0
  0.79339810   0.60870309   0.00001758 1.0
  0.79336162   0.60875064   0.00000316 1.0
  0.79329286   0.60884024   0.00002396 1.0
  0.79313075   0.60905140   0.00008932 1.0
  0.79296524   0.60926686   0.00015547 1.0
  0.79291625   0.60933061   0.00017467 1.0
  0.79299175   0.60923235   0.00014464 1.0
  0.79318304   0.60898330   0.00006828 1.0
  0.79350033   0.60856982   0.00005933 1.0
  0.79381389   0.60816074   0.00018651 1.0
  0.79397348   0.60795235   0.00024887 1.0
  0.79395884   0.60797146   0.00024396 1.0
  0.79377911   0.60820614   0.00017106 1.0
  0.79344514   0.60864177   0.00003710 1.0
  0.79315268   0.60902284   0.00008069 1.0
  0.79298497   0.60924117   0.00014955 1.0
  0.79293315   0.60930862   0.00016991 1.0
  0.79300411   0.60921627   0.00014103 1.0
  0.79318304   0.60898330   0.00006828 1.0
  0.79333610   0.60878390   0.00000780 1.0
  0.79341822   0.60867687   0.00002512 1.0
  0.79344912   0.60863658   0.00003898 1.0
  0.79343112   0.60866005   0.00003161 1.0
  0.79336747   0.60874302   0.00000546 1.0
  0.79330176   0.60882864   0.00001999 1.0
  0.79327832   0.60885919   0.00002988 1.0
  0.79326527   0.60887619   0.00003562 1.0
  0.79325878   0.60888464   0.00003853 1.0
  0.79324844   0.60889811   0.00004129 1.0
  0.79324844   0.60889811   0.00004129 1.0
  0.79322599   0.60892735   0.00005780 1.0
  0.79324939   0.60889687   0.00004785 1.0
  0.79328412   0.60885163   0.00003232 1.0
  0.79334037   0.60877833   0.00000545 1.0
  0.79344675   0.60863967   0.00004287 1.0
  0.79370641   0.60830100   0.00015940 1.0
  0.79396671   0.60796117   0.00028005 1.0
  0.79403973   0.60786579   0.00031325 1.0
  0.79392741   0.60801250   0.00026099 1.0
  0.79361944   0.60841447   0.00012184 1.0
  0.79312343   0.60906092   0.00010509 1.0
  0.79261999   0.60971586   0.00033490 1.0
  0.79237656   0.61003212   0.00044750 1.0
  0.79239572   0.61000723   0.00043768 1.0
  0.79268087   0.60963673   0.00030632 1.0
  0.79320328   0.60895693   0.00006698 1.0
  0.79367007   0.60834842   0.00014464 1.0
  0.79393752   0.60799930   0.00026792 1.0
  0.79401388   0.60789955   0.00030401 1.0
  0.79390720   0.60803889   0.00025464 1.0
  0.79361833   0.60841593   0.00012212 1.0
  0.79338333   0.60872234   0.00001415 1.0
  0.79325284   0.60889237   0.00004648 1.0
  0.79320161   0.60895911   0.00006929 1.0
  0.79322751   0.60892538   0.00005630 1.0
  0.79333506   0.60878526   0.00001063 1.0
  0.79343173   0.60865925   0.00003685 1.0
  0.79347209   0.60860664   0.00005322 1.0
  0.79349231   0.60858028   0.00006370 1.0
  0.79350649   0.60856178   0.00007033 1.0
  0.79351066   0.60855635   0.00007184 1.0
  0.79351066   0.60855635   0.00007184 1.0
  0.79342065   0.60867363   0.00029438 1.0
  0.79340452   0.60869468   0.00024148 1.0
  0.79338891   0.60871504   0.00015984 1.0
  0.79335864   0.60875453   0.00002759 1.0
  0.79330693   0.60882187   0.00021555 1.0
  0.79317750   0.60898998   0.00080980 1.0
  0.79304382   0.60916296   0.00141338 1.0
  0.79300990   0.60920669   0.00158429 1.0
  0.79306417   0.60913668   0.00131941 1.0
  0.79321780   0.60893772   0.00061842 1.0
  0.79346868   0.60861085   0.00053296 1.0
  0.79371726   0.60828452   0.00168592 1.0
  0.79383887   0.60812399   0.00225064 1.0
  0.79382884   0.60813725   0.00220575 1.0
  0.79368823   0.60832278   0.00154849 1.0
  0.79342598   0.60866665   0.00034097 1.0
  0.79319750   0.60896404   0.00072798 1.0
  0.79306191   0.60913956   0.00134510 1.0
  0.79302232   0.60919066   0.00152742 1.0
  0.79307776   0.60911907   0.00127523 1.0
  0.79322003   0.60893481   0.00061423 1.0
  0.79334175   0.60877653   0.00006871 1.0
  0.79340243   0.60869741   0.00023082 1.0
  0.79342940   0.60866219   0.00034934 1.0
  0.79341365   0.60868276   0.00028770 1.0
  0.79336469   0.60874663   0.00004753 1.0
  0.79331444   0.60881209   0.00018159 1.0
  0.79329273   0.60884034   0.00027200 1.0
  0.79328502   0.60885037   0.00032110 1.0
  0.79327433   0.60886428   0.00035131 1.0
  0.79327095   0.60886868   0.00037117 1.0
  0.79327095   0.60886868   0.00037117 1.0
  0.79347535   0.60860239   0.00002931 1.0
  0.79345269   0.60863194   0.00002457 1.0
  0.79341925   0.60867552   0.00001616 1.0
  0.79336544   0.60874566   0.00000316 1.0
  0.79326424   0.60887752   0.00002192 1.0
  0.79301930   0.60919650   0.00008214 1.0
  0.79276649   0.60952545   0.00014363 1.0
  0.79270005   0.60961185   0.00016023 1.0
  0.79280932   0.60946974   0.00013338 1.0
  0.79309753   0.60909466   0.00006279 1.0
  0.79357223   0.60847605   0.00005500 1.0
  0.79404874   0.60785407   0.00017236 1.0
  0.79428117   0.60755031   0.00022967 1.0
  0.79426209   0.60757525   0.00022476 1.0
  0.79399370   0.60792597   0.00015792 1.0
  0.79349356   0.60857865   0.00003407 1.0
  0.79305361   0.60915184   0.00007478 1.0
  0.79279576   0.60948738   0.00013873 1.0
  0.79272486   0.60957959   0.00015662 1.0
  0.79282846   0.60944484   0.00013107 1.0
  0.79309865   0.60909320   0.00006337 1.0
  0.79332710   0.60879563   0.00000722 1.0
  0.79344514   0.60864177   0.00002339 1.0
  0.79349921   0.60857128   0.00003594 1.0
  0.79347047   0.60860876   0.00002930 1.0
  0.79337420   0.60873424   0.00000474 1.0
  0.79327784   0.60885981   0.00001794 1.0
  0.79324136   0.60890734   0.00002803 1.0
  0.79322067   0.60893429   0.00003232 1.0
  0.79320871   0.60894987   0.00003581 1.0
  0.79319694   0.60896520   0.00003798 1.0
  0.79319694   0.60896520   0.00003798 1.0
  0.79322918   0.60892319   0.00010900 1.0
  0.79325187   0.60889364   0.00009184 1.0
  0.79328734   0.60884743   0.00005969 1.0
  0.79334166   0.60877664   0.00001091 1.0
  0.79344346   0.60864396   0.00008092 1.0
  0.79369352   0.60831776   0.00030445 1.0
  0.79394471   0.60798973   0.00053123 1.0
  0.79401719   0.60789501   0.00059445 1.0
  0.79390483   0.60804184   0.00049514 1.0
  0.79361385   0.60842173   0.00023212 1.0
  0.79312900   0.60905365   0.00020094 1.0
  0.79264581   0.60968206   0.00063401 1.0
  0.79241244   0.60998509   0.00084563 1.0
  0.79242593   0.60996758   0.00083004 1.0
  0.79270670   0.60960294   0.00058146 1.0
  0.79321005   0.60894811   0.00012790 1.0
  0.79365540   0.60836751   0.00027399 1.0
  0.79391723   0.60802563   0.00050697 1.0
  0.79398905   0.60793179   0.00057540 1.0
  0.79388916   0.60806231   0.00047983 1.0
  0.79360820   0.60842910   0.00023183 1.0
  0.79338222   0.60872379   0.00002627 1.0
  0.79325619   0.60888801   0.00008719 1.0
  0.79320726   0.60895174   0.00013165 1.0
  0.79323428   0.60891655   0.00010769 1.0
  0.79333220   0.60878897   0.00001781 1.0
  0.79343034   0.60866107   0.00006792 1.0
  0.79346655   0.60861385   0.00010208 1.0
  0.79348911   0.60858444   0.00012032 1.0
  0.79349958   0.60857078   0.00013166 1.0
  0.79350746   0.60856051   0.00014038 1.0
  0.79350746   0.60856051   0.00014038 1.0
  0.79345278   0.60863176   0.00026671 1.0
  0.79343331   0.60865716   0.00021884 1.0
  0.79340685   0.60869167   0.00014474 1.0
  0.79336246   0.60874955   0.00002487 1.0
  0.79328111   0.60885552   0.00019556 1.0
  0.79308293   0.60911324   0.00073369 1.0
  0.79288188   0.60937401   0.00128057 1.0
  0.79282370   0.60944936   0.00143474 1.0
  0.79291346   0.60933309   0.00119555 1.0
  0.79314579   0.60903157   0.00056111 1.0
  0.79353169   0.60852874   0.00048215 1.0
  0.79391411   0.60802801   0.00152512 1.0
  0.79410549   0.60777654   0.00203714 1.0
  0.79408758   0.60780008   0.00199643 1.0
  0.79387160   0.60808381   0.00140183 1.0
  0.79346422   0.60861682   0.00030921 1.0
  0.79310860   0.60907989   0.00065725 1.0
  0.79290220   0.60934770   0.00121648 1.0
  0.79284350   0.60942372   0.00138104 1.0
  0.79292474   0.60931849   0.00115253 1.0
  0.79314467   0.60903302   0.00055562 1.0
  0.79333387   0.60878681   0.00006164 1.0
  0.79342943   0.60866221   0.00020874 1.0
  0.79346875   0.60861091   0.00031585 1.0
  0.79344910   0.60863656   0.00026013 1.0
  0.79337198   0.60873713   0.00004351 1.0
  0.79329192   0.60884145   0.00016474 1.0
  0.79326258   0.60887964   0.00024669 1.0
  0.79324499   0.60890254   0.00029031 1.0
  0.79323685   0.60891312   0.00031855 1.0
  0.79322424   0.60892955   0.00033526 1.0
  0.79322424   0.60892955   0.00033526 1.0
  0.79338367   0.60872190   0.00002931 1.0
  0.79337823   0.60872899   0.00002457 1.0
  0.79337099   0.60873842   0.00001616 1.0
  0.79335695   0.60875672   0.00000316 1.0
  0.79333040   0.60879132   0.00002192 1.0
  0.79326392   0.60887794   0.00008214 1.0
  0.79319993   0.60896129   0.00014349 1.0
  0.79318535   0.60898028   0.00016038 1.0
  0.79321117   0.60894665   0.00013396 1.0
  0.79328432   0.60885137   0.00006222 1.0
  0.79341145   0.60868569   0.00005384 1.0
  0.79353400   0.60852589   0.00017164 1.0
  0.79359586   0.60844520   0.00022851 1.0
  0.79359363   0.60844811   0.00022360 1.0
  0.79351824   0.60854645   0.00015735 1.0
  0.79339122   0.60871206   0.00003407 1.0