# vtk DataFile Version 3.0
trk2vtk output
ASCII
DATASET POLYDATA
POINTS 6394 float
 28.33322716   4.85090637   0.99865288
 28.61950111   4.81330633   0.99867016
 29.35562706   4.71658039   0.99870622
 30.35756493   4.58484125   0.99873883
 31.44127274   4.44219971   0.99874479
 32.42271423   4.31276798   0.99870181
 33.24562454   4.20372820   0.99856693
 34.06420898   4.09474182   0.99833184
 34.88277054   3.98561049   0.99806911
 35.70136642   3.87670374   0.99784982
 36.52003860   3.76839018   0.99774754
 37.33883667   3.66105175   0.99783695
 38.15776443   3.55468988   0.99811900
 38.97675323   3.44880629   0.99849486
 39.79573822   3.34288406   0.99886280
 40.61465073   3.23640633   0.99912113
 41.43342972   3.12890625   0.99917740
 42.25209045   3.02050114   0.99905443
 43.07067871   2.91157413   0.99882871
 43.88925171   2.80249190   0.99857241
 44.70785141   2.69362426   0.99835855
 45.52652359   2.58531523   0.99825531
 46.34526062   2.47746778   0.99824345
 47.16402817   2.36987352   0.99828196
 47.98281097   2.26237917   0.99834025
 48.80158234   2.15483356   0.99838865
 49.62459183   2.04652381   0.99839658
 50.60603333   1.91712642   0.99836051
 51.68970108   1.77414918   0.99830025
 52.69157410   1.64191198   0.99823505
 53.42763901   1.54473472   0.99818271
 53.71388626   1.50693750   0.99816096
 28.35105896   4.98635149   2.30888915
 28.63731766   4.94863653   2.30891824
 29.37340927   4.85166693   2.30897999
 30.37531662   4.71970844   2.30903530
 31.45901871   4.57702589   2.30904579
 32.44049835   4.44788456   2.30897260
 33.26353073   4.33975887   2.30874157
 34.08232117   4.23235893   2.30834031
 34.90111923   4.12500620   2.30789089
 35.71990967   4.01758051   2.30751657
 36.53867340   3.90996170   2.30734086
 37.35739517   3.80202532   2.30749130
 38.17607498   3.69377041   2.30796909
 38.99473572   3.58536053   2.30860662
 39.81339645   3.47696257   2.30923200
 40.63208008   3.36874628   2.30967045
 41.45080948   3.26086283   2.30976725
 42.26957703   3.15327454   2.30956197
 43.08836746   3.04585695   2.30918097
 43.90716553   2.93848920   2.30874896
 44.72595215   2.83105206   2.30838823
 45.54471588   2.72343206   2.30821443
 46.36346054   2.61566162   2.30819511
 47.18219376   2.50780869   2.30826092
 48.00092316   2.39992285   2.30835962
 48.81965256   2.29205418   2.30844116
 49.64265442   2.18369055   2.30845499
 50.62413025   2.05453825   2.30839276
 51.70784760   1.91196513   2.30829096
 52.70977402   1.78016901   2.30817938
 53.44588852   1.68334651   2.30808949
 53.73215485   1.64569521   2.30805302
 28.39900970   5.35057116   1.99486756
 28.68527031   5.31288338   1.99492884
 29.42137146   5.21597242   1.99505770
 30.42328835   5.08406687   1.99517334
 31.50699234   4.94139385   1.99519503
 32.48846054   4.81218290   1.99504197
 33.31146240   4.70383739   1.99455893
 34.13020325   4.59605646   1.99372029
 34.94894791   4.48827600   1.99278033
 35.76768875   4.38049459   1.99199748
 36.58642960   4.27270889   1.99163008
 37.40517044   4.16491556   1.99194610
 38.22391129   4.05711508   1.99294579
 39.04264832   3.94931078   1.99428082
 39.86138535   3.84150743   1.99558866
 40.68012619   3.73370838   1.99650741
 41.49886703   3.62591696   1.99670982
 42.31760788   3.51813364   1.99627817
 43.13635254   3.41035414   1.99548101
 43.95509338   3.30257559   1.99457514
 44.77383804   3.19479561   1.99381948
 45.59257889   3.08701086   1.99345553
 46.41131973   2.97922182   1.99341452
 47.23006439   2.87143135   1.99355137
 48.04880524   2.76363945   1.99375832
 48.86754608   2.65584803   1.99392867
 49.69054794   2.54749727   1.99395728
 50.67201614   2.41828609   1.99382842
 51.75572205   2.27561569   1.99361455
 52.75763702   2.14371347   1.99338138
 53.49374008   2.04680538   1.99319422
 53.77999878   2.00911927   1.99311721
 28.29363632   4.55018997   2.18303871
 28.57989693   4.51248550   2.18302989
 29.31599045   4.41553926   2.18301058
 30.31790352   4.28360224   2.18299317
 31.40160751   4.14092350   2.18298984
 32.38307953   4.01175404   2.18301296
 33.20609665   3.90354156   2.18308425
 34.02487183   3.79598999   2.18320870
 34.84364700   3.68846798   2.18334794
 35.66241837   3.58090115   2.18346405
 36.48117447   3.47321558   2.18351841
 37.29990387   3.36533689   2.18347144
 38.11860657   3.25726414   2.18332314
 38.93729782   3.14909554   2.18312454
 39.75599289   3.04093456   2.18293047
 40.57469940   2.93288469   2.18279433
 41.39343262   2.82503772   2.18276405
 42.21218872   2.71737075   2.18282843
 43.03096390   2.60980773   2.18294740
 43.84973907   2.50227523   2.18308163
 44.66850662   2.39470029   2.18319440
 45.48726273   2.28701448   2.18324852
 46.30600739   2.17923641   2.18325448
 47.12474060   2.07140803   2.18323421
 47.94347763   1.96355963   2.18320370
 48.76221085   1.85572171   2.18317795
 49.58521271   1.74736357   2.18317413
 50.56668472   1.61818767   2.18319273
 51.65039444   1.47557616   2.18322492
 52.65231705   1.34373760   2.18325949
 53.38842773   1.24688172   2.18328714
 53.67469025   1.20921636   2.18329859
 28.19458961   3.79784536   2.29219365
 28.48084831   3.76013184   2.29211855
 29.21694183   3.66316462   2.29196048
 30.21885109   3.53120804   2.29181814
 31.30255508   3.38852596   2.29179168
 32.28403091   3.25938177   2.29197979
 33.10706329   3.15124655   2.29257298
 33.92584991   3.04382849   2.29360223
 34.74464798   2.93645763   2.29475594
 35.56343460   2.82901502   2.29571724
 36.38219833   2.72138929   2.29616809
 37.20092010   2.61346149   2.29577947
 38.01959991   2.50522923   2.29455161
 38.83826065   2.39684963   2.29291224
 39.65692520   2.28848076   2.29130554
 40.47561264   2.18028522   2.29017758
 41.29433823   2.07240582   2.28992963
 42.11310577   1.96480584   2.29045963
 42.93189240   1.85736942   2.29143953
 43.75068665   1.74997926   2.29255176
 44.56947327   1.64252400   2.29348016
 45.38823700   1.53489518   2.29392767
 46.20698166   1.42712235   2.29397750
 47.02571487   1.31927252   2.29381013
 47.84444427   1.21139193   2.29355574
 48.66317749   1.10352707   2.29334641
 49.48617935   0.99516392   2.29331136
 50.46765518   0.86600876   2.29346991
 51.55137253   0.72343135   2.29373217
 52.55329895   0.59162974   2.29401851
 53.28941345   0.49480331   2.29424882
 53.57567978   0.45715094   2.29434299
 28.36484337   5.09105968   1.95033395
 28.65110588   5.05337620   1.95037246
 29.38720894   4.95647335   1.95045304
 30.38912392   4.82457495   1.95052612
 31.47282791   4.68190432   1.95053947
 32.45429230   4.55268288   1.95044315
 33.27729416   4.44430685   1.95014036
 34.09602737   4.33647251   1.94961381
 34.91476059   4.22863340   1.94902408
 35.73349762   4.12080145   1.94853318
 36.55223846   4.01299238   1.94830251
 37.37098312   3.90521955   1.94850111
 38.18972778   3.79748249   1.94912839
 39.00848007   3.68976402   1.94996607
 39.82722855   3.58204412   1.95078683
 40.64597702   3.47430325   1.95136333
 41.46471786   3.36652517   1.95149016
 42.28345871   3.25871372   1.95121956
 43.10219574   3.15088272   1.95071924
 43.92092896   3.04304552   1.95015073
 44.73966599   2.93521714   1.94967663
 45.55840683   2.82740879   1.94944787
 46.37714767   2.71961713   1.94942272
 47.19588852   2.61183500   1.94950819
 48.01463318   2.50405645   1.94963801
 48.83337402   2.39627600   1.94974530
 49.65637589   2.28792739   1.94976306
 50.63784409   2.15870786   1.94968200
 51.72154617   2.01602411   1.94954813
 52.72346115   1.88410711   1.94940197
 53.45956039   1.78718758   1.94928443
 53.74581909   1.74949670   1.94923604
 28.42200089   5.52520895   2.36201715
 28.70825768   5.48748875   2.36209369
 29.44435120   5.39050913   2.36225533
 30.44626045   5.25854158   2.36240005
 31.52996445   5.11585760   2.36242723
 32.51144028   4.98672724   2.36223507
 33.33447647   4.87863827   2.36163044
 34.15327835   4.77130175   2.36058092
 34.97208786   4.66401958   2.35940409
 35.79088211   4.55665255   2.35842419
 36.60964966   4.44906092   2.35796428
 37.42836761   4.34110022   2.35835934
 38.24703598   4.23276997   2.35961032
 39.06568146   4.12425852   2.36128092
 39.88432693   4.01576185   2.36291718
 40.70299911   3.90747595   2.36406708
 41.52172470   3.79957771   2.36432028
 42.34049606   3.69202232   2.36378098
 43.15929413   3.58466625   2.36278367
 43.97810364   3.47736835   2.36165071
 44.79689789   3.36998892   2.36070585
 45.61566544   3.26239729   2.36025000
 46.43441010   3.15463018   2.36019969
 47.25314331   3.04676676   2.36037064
 48.07187271   2.93886518   2.36062932
 48.89060211   2.83098292   2.36084318
 49.71360016   2.72261739   2.36087871
 50.69507980   2.59347463   2.36071682
 51.77879715   2.45091724   2.36044955
 52.78073120   2.31913877   2.36015821
 53.51684570   2.22233009   2.35992360
 53.80311203   2.18468475   2.35982728
 28.25209427   4.23464251   1.71837449
 28.53835869   4.19697905   1.71833801
 29.27446747   4.10011911   1.71825993
 30.27638817   3.96825981   1.71819031
 31.36009216   3.82559586   1.71817744
 32.34155273   3.69632435   1.71826982
 33.16453171   3.58778715   1.71856070
 33.98322678   3.47967434   1.71906602
 34.80192184   3.37152147   1.71963203
 35.62062454   3.26343012   1.72010374
 36.43934631   3.15549898   1.72032499
 37.25810623   3.04783249   1.72013485
 38.07689667   2.94042969   1.71953273
 38.89570618   2.83315682   1.71872914
 39.71451187   2.72587347   1.71794188
 40.53329849   2.61843944   1.71738875
 41.35205078   2.51072788   1.71726668
 42.17076874   2.40277147   1.71752596
 42.98947144   2.29467297   1.71800613
 43.80816650   2.18653226   1.71855092
 44.62686920   2.07844996   1.71900523
 45.44559097   1.97051954   1.71922457
 46.26433182   1.86271405   1.71924877
 47.08308029   1.75497770   1.71916628
 47.90183258   1.64726830   1.71904182
 48.72058487   1.53954506   1.71893907
 49.54358673   1.43120575   1.71892226
 50.52504730   1.30194354   1.71899986
 51.60874176   1.15918851   1.71912873
 52.61064529   1.02719426   1.71926904
[...]
POINT_DATA 6394
COLOR_SCALARS tangents 4
  0.99148454   0.13022442   0.00005987 1.0
  0.99147740   0.13027877   0.00004857 1.0
  0.99146642   0.13036231   0.00003226 1.0
  0.99144857   0.13049805   0.00000545 1.0
  0.99141575   0.13074712   0.00004341 1.0
  0.99133513   0.13135692   0.00016249 1.0
  0.99125294   0.13197547   0.00028467 1.0
  0.99122947   0.13215157   0.00031816 1.0
  0.99126580   0.13187891   0.00026554 1.0
  0.99136108   0.13116098   0.00012386 1.0
  0.99151654   0.12998055   0.00010827 1.0
  0.99167084   0.12879764   0.00034154 1.0
  0.99174582   0.12821862   0.00045515 1.0
  0.99173980   0.12826521   0.00044555 1.0
  0.99165261   0.12893798   0.00031282 1.0
  0.99149090   0.13017597   0.00006814 1.0
  0.99134641   0.13127174   0.00014890 1.0
  0.99126243   0.13190423   0.00027334 1.0
  0.99123750   0.13209132   0.00031036 1.0
  0.99127207   0.13183178   0.00025897 1.0
  0.99136179   0.13115559   0.00012501 1.0
  0.99143566   0.13059604   0.00001436 1.0
  0.99147594   0.13028986   0.00004663 1.0
  0.99149188   0.13016856   0.00007059 1.0
  0.99148363   0.13023137   0.00005861 1.0
  0.99145133   0.13047704   0.00000955 1.0
  0.99142024   0.13071303   0.00003643 1.0
  0.99140816   0.13080467   0.00005513 1.0
  0.99140151   0.13085506   0.00006453 1.0
  0.99139730   0.13088693   0.00007049 1.0
  0.99139457   0.13090764   0.00007535 1.0
  0.99139457   0.13090764   0.00007535 1.0
  0.99143217   0.13062249   0.00010074 1.0
  0.99143417   0.13060736   0.00008317 1.0
  0.99143783   0.13057957   0.00005474 1.0
  0.99144362   0.13053560   0.00000960 1.0
  0.99145439   0.13045379   0.00007394 1.0
  0.99148042   0.13025551   0.00027831 1.0
  0.99150667   0.13005496   0.00048590 1.0
  0.99151416   0.12999757   0.00054422 1.0
  0.99150266   0.13008561   0.00045327 1.0
  0.99147200   0.13031969   0.00021278 1.0
  0.99142138   0.13070428   0.00018218 1.0
  0.99137031   0.13108996   0.00057857 1.0
  0.99134538   0.13127738   0.00077201 1.0
  0.99134727   0.13126319   0.00075729 1.0
  0.99137649   0.13104340   0.00053094 1.0
  0.99142985   0.13064008   0.00011722 1.0
  0.99147685   0.13028276   0.00024858 1.0
  0.99150392   0.13007596   0.00046136 1.0
  0.99151183   0.13001545   0.00052314 1.0
  0.99150080   0.13009984   0.00043682 1.0
  0.99147182   0.13032111   0.00021047 1.0
  0.99144789   0.13050318   0.00002339 1.0
  0.99143472   0.13060316   0.00007968 1.0
  0.99142948   0.13064292   0.00011953 1.0
  0.99143217   0.13062249   0.00009874 1.0
  0.99144278   0.13054203   0.00001666 1.0
  0.99145289   0.13046518   0.00006286 1.0
  0.99145681   0.13043538   0.00009314 1.0
  0.99145894   0.13041920   0.00011041 1.0
  0.99146033   0.13040861   0.00012106 1.0
  0.99146115   0.13040235   0.00012634 1.0
  0.99146115   0.13040235   0.00012634 1.0
  0.99144446   0.13052910   0.00021222 1.0
  0.99144460   0.13052804   0.00017357 1.0
  0.99144477   0.13052687   0.00011442 1.0
  0.99144478   0.13052680   0.00001985 1.0
  0.99144508   0.13052441   0.00015462 1.0
  0.99144543   0.13052055   0.00058190 1.0
  0.99144566   0.13051619   0.00101554 1.0
  0.99144568   0.13051501   0.00113824 1.0
  0.99144565   0.13051677   0.00094798 1.0
  0.99144532   0.13052192   0.00044490 1.0
  0.99144415   0.13053101   0.00038269 1.0
  0.99144238   0.13053944   0.00121056 1.0
  0.99144113   0.13054450   0.00161663 1.0
  0.99144133   0.13054337   0.00158372 1.0
  0.99144272   0.13053775   0.00111254 1.0
  0.99144450   0.13052874   0.00024511 1.0
  0.99144566   0.13051908   0.00052271 1.0
  0.99144601   0.13051390   0.00096530 1.0
  0.99144595   0.13051334   0.00109696 1.0
  0.99144598   0.13051447   0.00091506 1.0
  0.99144547   0.13052079   0.00044072 1.0
  0.99144490   0.13052591   0.00004966 1.0
  0.99144474   0.13052701   0.00016572 1.0
  0.99144442   0.13052931   0.00025060 1.0
  0.99144450   0.13052874   0.00020628 1.0
  0.99144478   0.13052679   0.00003447 1.0
  0.99144506   0.13052465   0.00013018 1.0
  0.99144510   0.13052422   0.00019565 1.0
  0.99144514   0.13052386   0.00023074 1.0
  0.99144513   0.13052392   0.00025208 1.0
  0.99144508   0.13052427   0.00026672 1.0
  0.99144508   0.13052427   0.00026672 1.0
  0.99143700   0.13058592   0.00003055 1.0
  0.99143829   0.13057609   0.00002601 1.0
  0.99144068   0.13055797   0.00001722 1.0
  0.99144410   0.13053195   0.00000305 1.0
  0.99145058   0.13048272   0.00002336 1.0
  0.99146664   0.13036066   0.00008588 1.0
  0.99148277   0.13023787   0.00015071 1.0
  0.99148739   0.13020267   0.00016861 1.0
  0.99148030   0.13025663   0.00014060 1.0
  0.99146142   0.13040035   0.00006583 1.0
  0.99143061   0.13063441   0.00005688 1.0
  0.99139958   0.13086959   0.00017958 1.0
  0.99138426   0.13098546   0.00024050 1.0
  0.99138554   0.13097578   0.00023501 1.0
  0.99140325   0.13084175   0.00016485 1.0
  0.99143566   0.13059607   0.00003667 1.0
  0.99146433   0.13037822   0.00007795 1.0
  0.99148098   0.13025149   0.00014407 1.0
  0.99148575   0.13021516   0.00016254 1.0
  0.99147896   0.13026687   0.00013656 1.0
  0.99146138   0.13040064   0.00006554 1.0
  0.99144670   0.13051226   0.00000722 1.0
  0.99143858   0.13057393   0.00002454 1.0
  0.99143551   0.13059717   0.00003695 1.0
  0.99143708   0.13058528   0.00003118 1.0
  0.99144363   0.13053554   0.00000460 1.0
  0.99144974   0.13048911   0.00001879 1.0
  0.99145215   0.13047081   0.00002945 1.0
  0.99145345   0.13046097   0.00003421 1.0
  0.99145443   0.13045347   0.00003725 1.0
  0.99145463   0.13045195   0.00003964 1.0
  0.99145463   0.13045195   0.00003964 1.0
  0.99143279   0.13061761   0.00026011 1.0
  0.99143461   0.13060386   0.00021290 1.0
  0.99143810   0.13057747   0.00014085 1.0
  0.99144371   0.13053495   0.00002421 1.0
  0.99145393   0.13045713   0.00019002 1.0
  0.99147872   0.13026677   0.00071459 1.0
  0.99150311   0.13007704   0.00124637 1.0
  0.99151051   0.13001903   0.00139706 1.0
  0.99149937   0.13010629   0.00116408 1.0
  0.99147080   0.13032790   0.00054595 1.0
  0.99142264   0.13069405   0.00047060 1.0
  0.99137294   0.13106288   0.00148686 1.0
  0.99134849   0.13124112   0.00198517 1.0
  0.99135034   0.13122776   0.00194561 1.0
  0.99137905   0.13101800   0.00136589 1.0
  0.99143037   0.13063585   0.00030026 1.0
  0.99147485   0.13029665   0.00064180 1.0
  0.99150031   0.13009890   0.00118660 1.0
  0.99150749   0.13004262   0.00134683 1.0
  0.99149744   0.13012134   0.00112423 1.0
  0.99147031   0.13033159   0.00054191 1.0
  0.99144752   0.13050601   0.00006034 1.0
  0.99143519   0.13059947   0.00020267 1.0
  0.99143026   0.13063667   0.00030805 1.0
  0.99143282   0.13061735   0.00025349 1.0
  0.99144285   0.13054147   0.00004222 1.0
  0.99145251   0.13046802   0.00016016 1.0
  0.99145628   0.13043924   0.00023993 1.0
  0.99145820   0.13042453   0.00028335 1.0
  0.99145960   0.13041381   0.00031020 1.0
  0.99146062   0.13040600   0.00032617 1.0
  0.99146062   0.13040600   0.00032617 1.0
  0.99144651   0.13051364   0.00013336 1.0
  0.99144607   0.13051698   0.00010854 1.0
  0.99144565   0.13052016   0.00007231 1.0
  0.99144506   0.13052466   0.00001221 1.0
  0.99144365   0.13053533   0.00009730 1.0
  0.99144078   0.13055671   0.00036476 1.0
  0.99143744   0.13058100   0.00063762 1.0
  0.99143664   0.13058667   0.00071413 1.0
  0.99143792   0.13057757   0.00059445 1.0
  0.99144172   0.13054974   0.00027933 1.0
  0.99144749   0.13050601   0.00024050 1.0
  0.99145283   0.13046341   0.00075960 1.0
  0.99145568   0.13044005   0.00101438 1.0
  0.99145540   0.13044235   0.00099389 1.0
  0.99145236   0.13046736   0.00069810 1.0
  0.99144661   0.13051285   0.00015359 1.0
  0.99144133   0.13055258   0.00032768 1.0
  0.99143806   0.13057643   0.00060586 1.0
  0.99143696   0.13058440   0.00068843 1.0
  0.99143849   0.13057331   0.00057410 1.0
  0.99144183   0.13054889   0.00027702 1.0
  0.99144449   0.13052903   0.00003046 1.0
  0.99144598   0.13051768   0.00010350 1.0
  0.99144661   0.13051282   0.00015720 1.0
  0.99144624   0.13051569   0.00012992 1.0
  0.99144512   0.13052425   0.00002140 1.0
  0.99144397   0.13053294   0.00008189 1.0
  0.99144347   0.13053668   0.00012248 1.0
  0.99144326   0.13053824   0.00014462 1.0
  0.99144307   0.13053974   0.00015831 1.0
  0.99144296   0.13054051   0.00016763 1.0
  0.99144296   0.13054051   0.00016763 1.0
  0.99142968   0.13064119   0.00026506 1.0
  0.99143245   0.13062028   0.00021772 1.0
  0.99143669   0.13058814   0.00014321 1.0
  0.99144348   0.13053666   0.00002487 1.0
  0.99145574   0.13044340   0.00019412 1.0
  0.99148599   0.13021140   0.00072838 1.0
  0.99151612   0.12997758   0.00127090 1.0
  0.99152455   0.12991165   0.00142507 1.0
  0.99151130   0.13001512   0.00118660 1.0
  0.99147620   0.13028672   0.00055692 1.0
  0.99141739   0.13073381   0.00047839 1.0
  0.99135724   0.13118130   0.00151486 1.0
  0.99132731   0.13140042   0.00202299 1.0
  0.99132972   0.13138284   0.00198142 1.0
  0.99136448   0.13112794   0.00139245 1.0
  0.99142742   0.13065827   0.00030661 1.0
  0.99148189   0.13024298   0.00065306 1.0
  0.99151307   0.13000146   0.00120767 1.0
  0.99152217   0.12993040   0.00137194 1.0
  0.99150941   0.13002989   0.00114416 1.0
  0.99147621   0.13028672   0.00055201 1.0
  0.99144841   0.13049920   0.00006092 1.0
  0.99143306   0.13061564   0.00020700 1.0
  0.99142697   0.13066164   0.00031325 1.0
  0.99143001   0.13063866   0.00025897 1.0
  0.99144240   0.13054489   0.00004280 1.0
  0.99145419   0.13045521   0.00016353 1.0
  0.99145864   0.13042123   0.00024451 1.0
  0.99146129   0.13040106   0.00028830 1.0
  0.99146269   0.13039029   0.00031598 1.0
  0.99146377   0.13038205   0.00033360 1.0
  0.99146377   0.13038205   0.00033360 1.0
  0.99145559   0.13044460   0.00012634 1.0
  0.99145368   0.13045916   0.00010517 1.0
  0.99145076   0.13048139   0.00006889 1.0
  0.99144585   0.13051865   0.00001178 1.0
  0.99143704   0.13058554   0.00009333 1.0
  0.99141516   0.13075112   0.00035040 1.0
  0.99139295   0.13091844   0.00061192 1.0
  0.99138661   0.13096610   0.00068540 1.0
  0.99139651   0.13089170   0.00057121 1.0
  0.99142219   0.13069803   0.00026792 1.0
  0.99146446   0.13037705   0.00023025 1.0
  0.99150607   0.13005835   0.00072914 1.0
  0.99152654   0.12990065   0.00097310 1.0
  0.99152484   0.12991374   0.00095332 1.0
  0.99150116   0.13009613   0.00066981 1.0
  0.99145726   0.13043188   0.00014782 1.0
  0.99141813   0.13072871   0.00031397 1.0
  0.99139538   0.13090022   0.00058146 1.0
  0.99138854   0.13095163   0.00065970 1.0
  0.99139794   0.13088092   0.00055014 1.0
  0.99142230   0.13069718   0.00026561 1.0
  0.99144232   0.13054549   0.00002930 1.0
  0.99145331   0.13046200   0.00009989 1.0
  0.99145760   0.13042933   0.00015071 1.0
  0.99145544   0.13044579   0.00012443 1.0
  0.99144657   0.13051324   0.00002025 1.0
  0.99143826   0.13057631   0.00007839 1.0
  0.99143491   0.13060169   0.00011789 1.0
  0.99143318   0.13061485   0.00013884 1.0
  0.99143202   0.13062361   0.00015237 1.0
  0.99143136   0.13062857   0.00016061 1.0
  0.99143136   0.13062857   0.00016061 1.0
  0.99146233   0.13039342   0.00003262 1.0
  0.99145909   0.13041810   0.00002665 1.0
  0.99145427   0.13045471   0.00001758 1.0
  0.99144653   0.13051349   0.00000316 1.0
  0.99143211   0.13062300   0.00002396 1.0
  0.99139702   0.13088902   0.00008932 1.0
  0.99136145   0.13115814   0.00015547 1.0
  0.99135115   0.13123596   0.00017467 1.0
  0.99136686   0.13111725   0.00014464 1.0
  0.99140836   0.13080313   0.00006828 1.0
  0.99147613   0.13028844   0.00005933 1.0
  0.99154391   0.12977146   0.00018651 1.0
  0.99157696   0.12951864   0.00024887 1.0
  0.99157421   0.12953967   0.00024396 1.0
  0.99153588   0.12983282   0.00017106 1.0
  0.99146493   0.13037367   0.00003710 1.0
  0.99140203   0.13085111   0.00008069 1.0
  0.99136543   0.13112803   0.00014955 1.0
  0.99135464   0.13120953   0.00016991 1.0
  0.99136964   0.13109622   0.00014103 1.0
  0.99140862   0.13080114   0.00006828 1.0
  0.99144082   0.13055687   0.00000780 1.0
  0.99145847   0.13042277   0.00002512 1.0
  0.99146541   0.13036999   0.00003898 1.0
  0.99146179   0.13039751   0.00003161 1.0
  0.99144772   0.13050445   0.00000546 1.0
  0.99143417   0.13060735   0.00001999 1.0
  0.99142881   0.13064804   0.00002988 1.0
  0.99142594   0.13066986   0.00003562 1.0
  0.99142414   0.13068349   0.00003853 1.0
  0.99142297   0.13069238   0.00004129 1.0
  0.99142297   0.13069238   0.00004129 1.0
  0.99141750   0.13073382   0.00005780 1.0
  0.99142239   0.13069673   0.00004785 1.0
  0.99143000   0.13063899   0.00003232 1.0
  0.99144221   0.13054632   0.00000545 1.0
  0.99146498   0.13037325   0.00004287 1.0
  0.99151997   0.12995430   0.00015940 1.0
  0.99157598   0.12952602   0.00028005 1.0
  0.99159170   0.12940558   0.00031325 1.0
  0.99156723   0.12959306   0.00026099 1.0
  0.99150231   0.13008906   0.00012184 1.0
  0.99139524   0.13090254   0.00010509 1.0
  0.99128730   0.13171702   0.00033490 1.0
  0.99123411   0.13211635   0.00044750 1.0
  0.99123832   0.13208483   0.00043769 1.0
  0.99130006   0.13162106   0.00030632 1.0
  0.99141308   0.13076734   0.00006698 1.0
  0.99151236   0.13001234   0.00014464 1.0
  0.99156945   0.12957603   0.00026792 1.0
  0.99158621   0.12944762   0.00030401 1.0
  0.99156292   0.12962602   0.00025464 1.0
  0.99150190   0.13009218   0.00012212 1.0
  0.99145118   0.13047817   0.00001415 1.0
  0.99142346   0.13068864   0.00004648 1.0
  0.99141237   0.13077273   0.00006929 1.0
  0.99141807   0.13072954   0.00005630 1.0
  0.99144039   0.13056013   0.00001063 1.0
  0.99146177   0.13039766   0.00003685 1.0
  0.99147016   0.13033388   0.00005322 1.0
  0.99147472   0.13029918   0.00006370 1.0
  0.99147753   0.13027782   0.00007033 1.0
  0.99147931   0.13026427   0.00007184 1.0
  0.99147931   0.13026427   0.00007184 1.0
  0.99145866   0.13042101   0.00029438 1.0
  0.99145611   0.13044052   0.00024148 1.0
  0.99145221   0.13047023   0.00015984 1.0
  0.99144622   0.13051586   0.00002759 1.0
  0.99143471   0.13060308   0.00021555 1.0
  0.99140684   0.13081213   0.00080980 1.0
  0.99137782   0.13102679   0.00141338 1.0
  0.99136961   0.13108698   0.00158430 1.0
  0.99138230   0.13099389   0.00131941 1.0
  0.99141574   0.13074572   0.00061842 1.0
  0.99146934   0.13033900   0.00053296 1.0
  0.99152161   0.12993093   0.00168592 1.0
  0.99154655   0.12973196   0.00225064 1.0
  0.99154456   0.12974789   0.00220575 1.0
  0.99151558   0.12997867   0.00154849 1.0
  0.99146076   0.13040491   0.00034097 1.0
  0.99141095   0.13078149   0.00072798 1.0
  0.99138151   0.13099956   0.00134510 1.0
  0.99137285   0.13106312   0.00152742 1.0
  0.99138506   0.13097341   0.00127523 1.0
  0.99141627   0.13074174   0.00061423 1.0
  0.99144168   0.13055032   0.00006871 1.0
  0.99145549   0.13044525   0.00023082 1.0
  0.99146099   0.13040318   0.00034934 1.0
  0.99145824   0.13042419   0.00028770 1.0
  0.99144701   0.13050985   0.00004753 1.0
  0.99143644   0.13059004   0.00018159 1.0
  0.99143211   0.13062272   0.00027200 1.0
  0.99142986   0.13063968   0.00032110 1.0
  0.99142837   0.13065091   0.00035131 1.0
  0.99142773   0.13065576   0.00037117 1.0
  0.99142773   0.13065576   0.00037117 1.0
  0.99147088   0.13032840   0.00002931 1.0
  0.99146631   0.13036314   0.00002457 1.0
  0.99145897   0.13041894   0.00001616 1.0
  0.99144732   0.13050748   0.00000316 1.0
  0.99142574   0.13067132   0.00002192 1.0
  0.99137305   0.13107044   0.00008214 1.0
  0.99131924   0.13147680   0.00014363 1.0
  0.99130409   0.13159095   0.00016023 1.0
  0.99132768   0.13141317   0.00013338 1.0
  0.99138991   0.13094287   0.00006279 1.0
  0.99149195   0.13016802   0.00005500 1.0
  0.99159344   0.12939250   0.00017236 1.0
  0.99164273   0.12901412   0.00022967 1.0
  0.99163881   0.12904426   0.00022476 1.0
  0.99158128   0.12948569   0.00015792 1.0
  0.99147501   0.13029696   0.00003407 1.0
  0.99138046   0.13101444   0.00007478 1.0
  0.99132541   0.13143023   0.00013873 1.0
  0.99130933   0.13155148   0.00015663 1.0
  0.99133178   0.13138221   0.00013107 1.0
  0.99139040   0.13093918   0.00006337 1.0
  0.99143892   0.13057132   0.00000722 1.0
  0.99146519   0.13037169   0.00002339 1.0
  0.99147572   0.13029157   0.00003594 1.0
  0.99147027   0.13033303   0.00002930 1.0
  0.99144914   0.13049373   0.00000474 1.0
  0.99142877   0.13064833   0.00001794 1.0
  0.99142075   0.13070922   0.00002803 1.0
  0.99141648   0.13074156   0.00003232 1.0
  0.99141368   0.13076279   0.00003581 1.0
  0.99141227   0.13077354   0.00003798 1.0
  0.99141227   0.13077354   0.00003798 1.0
  0.99141836   0.13072732   0.00010900 1.0
  0.99142314   0.13069105   0.00009184 1.0
  0.99143052   0.13063504   0.00005969 1.0
  0.99144235   0.13054524   0.00001091 1.0
  0.99146423   0.13037895   0.00008092 1.0
  0.99151750   0.12997293   0.00030445 1.0
  0.99157128   0.12956123   0.00053123 1.0
  0.99158646   0.12944476   0.00059445 1.0
  0.99156283   0.12962603   0.00049514 1.0
  0.99150042   0.13010325   0.00023212 1.0
  0.99139702   0.13088889   0.00020094 1.0
  0.99129262   0.13167586   0.00063401 1.0
  0.99124120   0.13206121   0.00084563 1.0
  0.99124541   0.13202969   0.00083004 1.0
  0.99130503   0.13158271   0.00058146 1.0
  0.99141409   0.13075968   0.00012790 1.0
  0.99150999   0.13003022   0.00027398 1.0
  0.99156502   0.12960926   0.00050698 1.0
  0.99158113   0.12948567   0.00057540 1.0
  0.99155868   0.12965785   0.00047984 1.0
  0.99149994   0.13010691   0.00023183 1.0
  0.99145092   0.13048019   0.00002627 1.0
  0.99142413   0.13068353   0.00008719 1.0
  0.99141349   0.13076419   0.00013165 1.0
  0.99141904   0.13072216   0.00010769 1.0
  0.99144062   0.13055844   0.00001781 1.0
  0.99146118   0.13040215   0.00006792 1.0
  0.99146922   0.13034098   0.00010208 1.0
  0.99147371   0.13030683   0.00012032 1.0
  0.99147646   0.13028587   0.00013166 1.0
  0.99147797   0.13027442   0.00014038 1.0
  0.99147797   0.13027442   0.00014038 1.0
  0.99146604   0.13036497   0.00026671 1.0
  0.99146206   0.13039533   0.00021884 1.0
  0.99145637   0.13043867   0.00014474 1.0
  0.99144684   0.13051114   0.00002487 1.0
  0.99142947   0.13064288   0.00019556 1.0
  0.99138646   0.13096699   0.00073369 1.0
  0.99134268   0.13129377   0.00128057 1.0
  0.99133001   0.13138779   0.00143475 1.0
  0.99134959   0.13124239   0.00119555 1.0
  0.99140041   0.13086219   0.00056111 1.0
  0.99148288   0.13023618   0.00048215 1.0
  0.99156418   0.12960770   0.00152511 1.0
  0.99160336   0.12930052   0.00203714 1.0
  0.99160033   0.12932437   0.00199643 1.0
  0.99155444   0.12968357   0.00140183 1.0
  0.99146914   0.13034129   0.00030921 1.0
  0.99139221   0.13092383   0.00065725 1.0
  0.99134730   0.13125944   0.00121648 1.0
  0.99133397   0.13135851   0.00138104 1.0
  0.99135246   0.13122112   0.00115253 1.0
  0.99140042   0.13086216   0.00055562 1.0
  0.99143996   0.13056340   0.00006164 1.0
  0.99146125   0.13040148   0.00020874 1.0
  0.99146992   0.13033530   0.00031585 1.0
  0.99146535   0.13037024   0.00026013 1.0
  0.99144834   0.13049980   0.00004351 1.0
  0.99143184   0.13062498   0.00016474 1.0
  0.99142535   0.13067411   0.00024670 1.0
  0.99142181   0.13070084   0.00029031 1.0
  0.99141968   0.13071695   0.00031855 1.0
  0.99141815   0.13072849   0.00033525 1.0
  0.99141815   0.13072849   0.00033525 1.0
  0.99145175   0.13047382   0.00002931 1.0
  0.99145048   0.13048352   0.00002457 1.0
  0.99144847   0.13049880   0.00001616 1.0
  0.99144554   0.13052100   0.00000316 1.0
  0.99143985   0.13056424   0.00002192 1.0
  0.99142609   0.13066863   0.00008214 1.0
  0.99141210   0.13077472   0.00014349 1.0
  0.99140813   0.13080483   0.00016038 1.0
  0.99141428   0.13075823   0.00013396 1.0
  0.99143053   0.13063498   0.00006222 1.0
  0.99145723   0.13043217   0.00005384 1.0
  0.99148365   0.13023108   0.00017164 1.0
  0.99149685   0.13013050   0.00022851 1.0
  0.99149573   0.13013904   0.00022361 1.0
  0.99148060   0.13025436   0.00015735 1.0
  0.99145275   0.13046625   0.00003407 1.0