# vtk DataFile Version 3.0
trk2vtk output
ASCII
DATASET POLYDATA
POINTS 6394 float
 84.24388885  11.06624031   0.99865288
 84.51067352  10.95582867   0.99867016
 85.19668579  10.67187500   0.99870622
 86.13038635  10.28530407   0.99873883
 87.14025116   9.86703777   0.99874479
 88.05474854   9.48800182   0.99870181
 88.82139587   9.16969204   0.99856693
 89.58387756   8.85255432   0.99833184
 90.34630585   8.53528118   0.99806911
 91.10881805   8.21821785   0.99784982
 91.87155914   7.90170765   0.99774754
 92.63468170   7.58610535   0.99783695
 93.39817810   7.27141380   0.99811900
 94.16184998   6.95716810   0.99849486
 94.92551422   6.64288664   0.99886280
 95.68896484   6.32808638   0.99912113
 96.45202637   6.01233435   0.99917740
 97.21472931   5.69573832   0.99905443
 97.97723389   5.37865543   0.99882871
 98.73968506   5.06142855   0.99857241
 99.50221252   4.74440145   0.99835855
100.26496124   4.42789459   0.99825531
101.02788544   4.11181784   0.99824345
101.79090118   3.79597664   0.99828196
102.55396271   3.48022890   0.99834025
103.31700897   3.16443348   0.99838865
104.08393860   2.84680414   0.99839658
104.99845123   2.46779943   0.99836051
106.00818634   2.04922104   0.99830025
106.94169617   1.66218615   0.99823505
107.62752533   1.37781191   0.99818271
107.89424133   1.26721644   0.99816096
 84.29616547  11.19245529   2.30888915
 84.56291199  11.08193588   2.30891824
 85.24882507  10.79775524   2.30897999
 86.18244171  10.41098118   2.30903530
 87.19228363   9.99267769   2.30904579
 88.10689545   9.61391163   2.30897260
 88.87390137   9.29645348   2.30874157
 89.63699341   8.98079491   2.30834031
 90.40010834   8.66517830   2.30789089
 91.16319275   8.34949493   2.30751657
 91.92620087   8.03363228   2.30734086
 92.68909454   7.71747208   2.30749130
 93.45185852   7.40101624   2.30796909
 94.21456146   7.08441544   2.30860662
 94.97727203   6.76782656   2.30923200
 95.74005127   6.45140648   2.30967045
 96.50296783   6.13529634   2.30976725
 97.26598358   5.81946135   2.30956197
 98.02907562   5.50378513   2.30918097
 98.79218292   5.18815565   2.30874896
 99.55526733   4.87246132   2.30838823
100.31827545   4.55659676   2.30821443
101.08123016   4.24059200   2.30819511
101.84415436   3.92451048   2.30826092
102.60706329   3.60839748   2.30835962
103.36997223   3.29230118   2.30844116
104.13688660   2.97462201   2.30845499
105.05149078   2.59584618   2.30839276
106.06137848   2.17764425   2.30829096
106.99505615   1.79102063   2.30817938
107.68103027   1.50697756   2.30808949
107.94779968   1.39651799   2.30805302
 84.43675232  11.53185368   1.99486756
 84.70350647  11.42136002   1.99492884
 85.38944244  11.13723469   1.99505770
 86.32307434  10.75050831   1.99517334
 87.33292389  10.33221436   1.99519503
 88.24751282   9.95338249   1.99504197
 89.01442719   9.63572025   1.99455893
 89.77737427   9.31970596   1.99372029
 90.54032135   9.00369263   1.99278033
 91.30327606   8.68767738   1.99199748
 92.06622314   8.37165833   1.99163008
 92.82916260   8.05563259   1.99194610
 93.59210205   7.73959923   1.99294579
 94.35504150   7.42356396   1.99428082
 95.11798096   7.10752869   1.99558866
 95.88092041   6.79149723   1.99650741
 96.64386749   6.47547293   1.99670982
 97.40681458   6.15945625   1.99627817
 98.16976166   5.84344339   1.99548101
 98.93271637   5.52743101   1.99457514
 99.69566345   5.21141720   1.99381948
100.45861053   4.89539862   1.99345553
101.22155762   4.57937670   1.99341452
101.98450470   4.26335335   1.99355137
102.74745178   3.94732809   1.99375832
103.51039124   3.63130379   1.99392867
104.27730560   3.31363630   1.99395728
105.19189453   2.93480539   1.99382842
106.20174408   2.51651311   1.99361455
107.13538361   2.12979054   1.99338138
107.82131958   1.84566736   1.99319422
108.08807373   1.73517537   1.99311721
 84.12781525  10.78601742   2.18303871
 84.39456177  10.67550850   2.18302989
 85.08048248  10.39134979   2.18301058
 86.01410675  10.00459480   2.18299317
 87.02395630   9.58629417   2.18298984
 87.93855286   9.20750237   2.18301296
 88.70552063   8.88996410   2.18308425
 89.46855927   8.57416344   2.18320870
 90.23160553   8.25839043   2.18334794
 90.99463654   7.94257545   2.18346405
 91.75762939   7.62664986   2.18351841
 92.52053833   7.31054401   2.18347144
 93.28337097   6.99425697   2.18332314
 94.04617310   6.67788172   2.18312454
 94.80897522   6.36151266   2.18293047
 95.57182312   6.04524755   2.18279433
 96.33473969   5.72917175   2.18276405
 97.09774017   5.41326332   2.18282843
 97.86077118   5.09745169   2.18294740
 98.62381744   4.78166819   2.18308163
 99.38684082   4.46584606   2.18319440
100.14982605   4.14991999   2.18324852
100.91278076   3.83390808   2.18325448
101.67571259   3.51784897   2.18323421
102.43862915   3.20177174   2.18320370
103.20156097   2.88570404   2.18317795
103.96846771   2.56802988   2.18317413
104.88306427   2.18923187   2.18319273
105.89294434   1.77099466   2.18322492
106.82660675   1.38433123   2.18325949
107.51255798   1.10025692   2.18328714
107.77931976   0.98978448   2.18329859
 83.83741760  10.08494377   2.29219365
 84.10416412   9.97442627   2.29211855
 84.79007721   9.69024754   2.29196048
 85.72369385   9.30347443   2.29181814
 86.73354340   8.88517094   2.29179168
 87.64815521   8.50640202   2.29197979
 88.41515350   8.18893528   2.29257298
 89.17823792   7.87325954   2.29360223
 89.94134521   7.55762768   2.29475594
 90.70442963   7.24192810   2.29571724
 91.46743774   6.92605782   2.29616809
 92.23032379   6.60990715   2.29577947
 92.99310303   6.29347229   2.29455161
 93.75581360   5.97690010   2.29291224
 94.51853180   5.66033840   2.29130554
 95.28131866   5.34393787   2.29017758
 96.04422760   5.02783203   2.28992963
 96.80725098   4.71198654   2.29045963
 97.57032776   4.39629269   2.29143953
 98.33342743   4.08064222   2.29255176
 99.09650421   3.76493120   2.29348016
 99.85951233   3.44905853   2.29392767
100.62246704   3.13305140   2.29397750
101.38539124   2.81697226   2.29381013
102.14830017   2.50086427   2.29355574
102.91121674   2.18477130   2.29334641
103.67813110   1.86709237   2.29331136
104.59273529   1.48831367   2.29346991
105.60262299   1.07010794   2.29373217
106.53630066   0.68347871   2.29401851
107.22226715   0.39943159   2.29424882
107.48903656   0.28897107   2.29434299
 84.33658600  11.29002762   1.95033395
 84.60334015  11.17953777   1.95037246
 85.28927612  10.89542007   1.95045304
 86.22291565  10.50870132   1.95052612
 87.23276520  10.09040833   1.95053947
 88.14734650   9.71156788   1.95044315
 88.91425323   9.39387703   1.95014036
 89.67717743   9.07781315   1.94961381
 90.44010162   8.76174450   1.94902408
 91.20303345   8.44568253   1.94853318
 91.96597290   8.12964153   1.94830251
 92.72892761   7.81363392   1.94850111
 93.49188995   7.49766064   1.94912839
 94.25485992   7.18170452   1.94996607
 95.01783752   6.86574650   1.95078683
 95.78079987   6.54976940   1.95136333
 96.54374695   6.23375797   1.95149016
 97.30668640   5.91771460   1.95121956
 98.06961823   5.60165358   1.95071924
 98.83254242   5.28558683   1.95015073
 99.59547424   4.96952772   1.94967663
100.35841370   4.65348768   1.94944787
101.12135315   4.33746290   1.94942272
101.88430786   4.02144718   1.94950819
102.64725494   3.70543480   1.94963801
103.41020203   3.38942051   1.94974530
104.17711639   3.07175541   1.94976306
105.09169769   2.69291663   1.94968200
106.10154724   2.27461195   1.94954813
107.03517914   1.88787556   1.94940197
107.72110748   1.60374188   1.94928443
107.98786163   1.49324536   1.94923604
 84.50415802  11.69459057   2.36201715
 84.77089691  11.58406639   2.36209369
 85.45681000  11.29987621   2.36225533
 86.39042664  10.91309261   2.36240005
 87.40026855  10.49478722   2.36242723
 88.31488800  10.11603165   2.36223507
 89.08190155   9.79860878   2.36163044
 89.84502411   9.48300838   2.36058092
 90.60816193   9.16745853   2.35940409
 91.37126923   8.85182953   2.35842419
 92.13429260   8.53599167   2.35796428
 92.89717102   8.21981049   2.35835934
 93.65990448   7.90328407   2.35961032
 94.42256927   7.58658886   2.36128092
 95.18524170   7.26990795   2.36291718
 95.94799042   6.95342350   2.36406708
 96.71089172   6.63730001   2.36432028
 97.47393036   6.32149601   2.36378098
 98.23704529   6.00587749   2.36278367
 99.00017548   5.69031286   2.36165071
 99.76328278   5.37467241   2.36070585
100.52630615   5.05883408   2.36025000
101.28926086   4.74283218   2.36019969
102.05217743   4.42674065   2.36037064
102.81507874   4.11061335   2.36062932
103.57798767   3.79450417   2.36084318
104.34490204   3.47682285   2.36087871
105.25951385   3.09805584   2.36071682
106.26940918   2.67986846   2.36044955
107.20309448   2.29326081   2.36015821
107.88906860   2.00923038   2.35992360
108.15583801   1.89877629   2.35982728
 84.00601959  10.49197388   1.71837449
 84.27278137  10.38150311   1.71833801
 84.95874023  10.09742451   1.71825993
 85.89238739   9.71074200   1.71819031
 86.90224457   9.29245567   1.71817744
 87.81680298   8.91356850   1.71826982
 88.58364868   8.59572792   1.71856070
 89.34646606   8.27940369   1.71906602
 90.10927582   7.96304226   1.71963203
 90.87210083   7.64673901   1.72010374
 91.63499451   7.33058453   1.72032499
 92.39798737   7.01467609   1.72013485
 93.16107941   6.69901466   1.71953273
 93.92422485   6.38347340   1.71872914
 94.68736267   6.06792259   1.71794188
 95.45044708   5.75223160   1.71738875
 96.21342468   5.43628168   1.71726668
 96.97630310   5.12010384   1.71752596
 97.73912811   4.80379343   1.71800613
 98.50193787   4.48744345   1.71855092
 99.26477051   4.17114830   1.71900523
100.02766418   3.85499430   1.71922457
100.79060364   3.53895664   1.71924877
101.55357361   3.22298336   1.71916628
102.31654358   2.90703535   1.71904182
103.07952118   2.59107471   1.71893907
103.84643555   2.27341795   1.71892226
104.76100159   1.89453959   1.71899986
105.77082062   1.47616839   1.71912873
106.70442200   1.08936000   1.71926904
[...]
POINT_DATA 6394
COLOR_SCALARS tangents 4
  0.92399482   0.38240498   0.00005987 1.0
  0.92397565   0.38245129   0.00004857 1.0
  0.92394267   0.38253097   0.00003226 1.0
  0.92389034   0.38265735   0.00000545 1.0
  0.92379425   0.38288927   0.00004341 1.0
  0.92355803   0.38345865   0.00016249 1.0
  0.92331874   0.38403440   0.00028467 1.0
  0.92325103   0.38419712   0.00031816 1.0
  0.92335613   0.38394450   0.00026554 1.0
  0.92363423   0.38327509   0.00012386 1.0
  0.92409063   0.38217338   0.00010827 1.0
  0.92454554   0.38107143   0.00034154 1.0
  0.92476641   0.38053499   0.00045516 1.0
  0.92474984   0.38057528   0.00044555 1.0
  0.92449110   0.38120349   0.00031282 1.0
  0.92401579   0.38235431   0.00006814 1.0
  0.92359064   0.38338010   0.00014890 1.0
  0.92334638   0.38396796   0.00027334 1.0
  0.92327499   0.38413955   0.00031036 1.0
  0.92337441   0.38390054   0.00025897 1.0
  0.92363702   0.38326837   0.00012501 1.0
  0.92385247   0.38274876   0.00001436 1.0
  0.92396953   0.38246608   0.00004663 1.0
  0.92401763   0.38234987   0.00007059 1.0
  0.92399452   0.38240570   0.00005861 1.0
  0.92389798   0.38263889   0.00000955 1.0
  0.92380766   0.38285689   0.00003643 1.0
  0.92377198   0.38294299   0.00005513 1.0
  0.92375267   0.38298956   0.00006453 1.0
  0.92373923   0.38302197   0.00007049 1.0
  0.92373488   0.38303246   0.00007535 1.0
  0.92373488   0.38303246   0.00007535 1.0
  0.92384355   0.38277029   0.00010074 1.0
  0.92384803   0.38275947   0.00008317 1.0
  0.92385945   0.38273190   0.00005474 1.0
  0.92387524   0.38269380   0.00000960 1.0
  0.92390758   0.38261569   0.00007394 1.0
  0.92398428   0.38243035   0.00027831 1.0
  0.92406106   0.38224458   0.00048590 1.0
  0.92408303   0.38219138   0.00054422 1.0
  0.92404912   0.38227348   0.00045328 1.0
  0.92395898   0.38249152   0.00021278 1.0
  0.92381130   0.38284807   0.00018217 1.0
  0.92366146   0.38320906   0.00057858 1.0
  0.92358833   0.38338492   0.00077201 1.0
  0.92359481   0.38336934   0.00075729 1.0
  0.92367952   0.38316558   0.00053094 1.0
  0.92383682   0.38278652   0.00011722 1.0
  0.92397216   0.38245966   0.00024858 1.0
  0.92405353   0.38226282   0.00046136 1.0
  0.92407619   0.38220797   0.00052314 1.0
  0.92404444   0.38228483   0.00043682 1.0
  0.92395816   0.38249349   0.00021047 1.0
  0.92388871   0.38266128   0.00002339 1.0
  0.92385042   0.38275369   0.00007968 1.0
  0.92383424   0.38279275   0.00011953 1.0
  0.92384139   0.38277550   0.00009874 1.0
  0.92387407   0.38269663   0.00001666 1.0
  0.92390297   0.38262685   0.00006286 1.0
  0.92391422   0.38259967   0.00009314 1.0
  0.92392092   0.38258348   0.00011041 1.0
  0.92392557   0.38257224   0.00012106 1.0
  0.92392843   0.38256535   0.00012634 1.0
  0.92392843   0.38256535   0.00012634 1.0
  0.92387893   0.38268482   0.00021222 1.0
  0.92387888   0.38268497   0.00017357 1.0
  0.92387834   0.38268629   0.00011443 1.0
  0.92387935   0.38268388   0.00001985 1.0
  0.92388069   0.38268060   0.00015462 1.0
  0.92388112   0.38267916   0.00058190 1.0
  0.92388280   0.38267420   0.00101554 1.0
  0.92388308   0.38267317   0.00113824 1.0
  0.92388380   0.38267195   0.00094797 1.0
  0.92388114   0.38267929   0.00044490 1.0
  0.92387695   0.38268947   0.00038269 1.0
  0.92387308   0.38269710   0.00121056 1.0
  0.92387173   0.38269885   0.00161663 1.0
  0.92387178   0.38269887   0.00158372 1.0
  0.92387400   0.38269517   0.00111255 1.0
  0.92387896   0.38268474   0.00024511 1.0
  0.92388213   0.38267681   0.00052271 1.0
  0.92388346   0.38267274   0.00096530 1.0
  0.92388489   0.38266893   0.00109695 1.0
  0.92388309   0.38267375   0.00091507 1.0
  0.92388135   0.38267880   0.00044072 1.0
  0.92388001   0.38268228   0.00004966 1.0
  0.92387938   0.38268376   0.00016572 1.0
  0.92387855   0.38268572   0.00025060 1.0
  0.92387761   0.38268801   0.00020628 1.0
  0.92387904   0.38268462   0.00003447 1.0
  0.92388103   0.38267978   0.00013017 1.0
  0.92387987   0.38268257   0.00019566 1.0
  0.92388076   0.38268039   0.00023074 1.0
  0.92387988   0.38268250   0.00025208 1.0
  0.92388096   0.38267988   0.00026672 1.0
  0.92388096   0.38267988   0.00026672 1.0
  0.92385640   0.38273928   0.00003055 1.0
  0.92385999   0.38273062   0.00002601 1.0
  0.92386723   0.38271313   0.00001722 1.0
  0.92387719   0.38268909   0.00000305 1.0
  0.92389613   0.38264335   0.00002336 1.0
  0.92394349   0.38252899   0.00008588 1.0
  0.92399092   0.38241438   0.00015071 1.0
  0.92400410   0.38238252   0.00016861 1.0
  0.92398345   0.38243244   0.00014060 1.0
  0.92392935   0.38256313   0.00006583 1.0
  0.92383731   0.38278536   0.00005688 1.0
  0.92374613   0.38300528   0.00017958 1.0
  0.92370290   0.38310950   0.00024049 1.0
  0.92370556   0.38310310   0.00023501 1.0
  0.92375824   0.38297608   0.00016485 1.0
  0.92385152   0.38275104   0.00003667 1.0
  0.92393805   0.38254212   0.00007795 1.0
  0.92398488   0.38242899   0.00014407 1.0
  0.92399961   0.38239337   0.00016254 1.0
  0.92397904   0.38244310   0.00013656 1.0
  0.92392780   0.38256688   0.00006554 1.0
  0.92388565   0.38266867   0.00000722 1.0
  0.92386138   0.38272726   0.00002454 1.0
  0.92385091   0.38275252   0.00003696 1.0
  0.92385770   0.38273613   0.00003118 1.0
  0.92387485   0.38269473   0.00000460 1.0
  0.92389392   0.38264869   0.00001879 1.0
  0.92390179   0.38262970   0.00002945 1.0
  0.92390479   0.38262245   0.00003421 1.0
  0.92390620   0.38261905   0.00003725 1.0
  0.92390880   0.38261276   0.00003964 1.0
  0.92390880   0.38261276   0.00003964 1.0
  0.92384585   0.38276464   0.00026011 1.0
  0.92384892   0.38275727   0.00021290 1.0
  0.92385978   0.38273110   0.00014085 1.0
  0.92387626   0.38269133   0.00002421 1.0
  0.92390655   0.38261816   0.00019002 1.0
  0.92397908   0.38244234   0.00071459 1.0
  0.92405176   0.38226534   0.00124637 1.0
  0.92407439   0.38221011   0.00139707 1.0
  0.92404166   0.38229003   0.00116407 1.0
  0.92395559   0.38249936   0.00054595 1.0
  0.92381395   0.38284144   0.00047060 1.0
  0.92367230   0.38318048   0.00148685 1.0
  0.92360041   0.38335145   0.00198518 1.0
  0.92360634   0.38333737   0.00194562 1.0
  0.92368852   0.38314181   0.00136589 1.0
  0.92383727   0.38278534   0.00030026 1.0
  0.92396886   0.38246718   0.00064180 1.0
  0.92404273   0.38228736   0.00118660 1.0
  0.92406515   0.38223263   0.00134683 1.0
  0.92403545   0.38230514   0.00112423 1.0
  0.92395458   0.38250183   0.00054191 1.0
  0.92388769   0.38266374   0.00006034 1.0
  0.92385143   0.38275122   0.00020267 1.0
  0.92383634   0.38278756   0.00030805 1.0
  0.92384414   0.38276877   0.00025349 1.0
  0.92387417   0.38269638   0.00004222 1.0
  0.92390193   0.38262931   0.00016016 1.0
  0.92391296   0.38260264   0.00023993 1.0
  0.92391893   0.38258820   0.00028335 1.0
  0.92392210   0.38258052   0.00031021 1.0
  0.92392722   0.38256815   0.00032617 1.0
  0.92392722   0.38256815   0.00032617 1.0
  0.92388362   0.38267355   0.00013336 1.0
  0.92388252   0.38267620   0.00010854 1.0
  0.92388212   0.38267718   0.00007231 1.0
  0.92387966   0.38268314   0.00001221 1.0
  0.92387650   0.38269073   0.00009730 1.0
  0.92386768   0.38271187   0.00036476 1.0
  0.92385779   0.38273538   0.00063762 1.0
  0.92385570   0.38274029   0.00071413 1.0
  0.92385999   0.38273015   0.00059445 1.0
  0.92387045   0.38270525   0.00027933 1.0
  0.92388746   0.38266422   0.00024049 1.0
  0.92390327   0.38262537   0.00075960 1.0
  0.92391176   0.38260427   0.00101439 1.0
  0.92391232   0.38260299   0.00099388 1.0
  0.92390168   0.38262933   0.00069810 1.0
  0.92388449   0.38267144   0.00015359 1.0
  0.92386942   0.38270771   0.00032768 1.0
  0.92386039   0.38272916   0.00060586 1.0
  0.92385654   0.38273832   0.00068843 1.0
  0.92386122   0.38272720   0.00057410 1.0
  0.92387086   0.38270427   0.00027702 1.0
  0.92387743   0.38268851   0.00003046 1.0
  0.92388401   0.38267261   0.00010350 1.0
  0.92388408   0.38267242   0.00015720 1.0
  0.92388327   0.38267440   0.00012992 1.0
  0.92388006   0.38268217   0.00002140 1.0
  0.92387710   0.38268929   0.00008189 1.0
  0.92387587   0.38269226   0.00012247 1.0
  0.92387484   0.38269475   0.00014462 1.0
  0.92387340   0.38269820   0.00015831 1.0
  0.92387544   0.38269328   0.00016762 1.0
  0.92387544   0.38269328   0.00016762 1.0
  0.92383381   0.38279372   0.00026507 1.0
  0.92384347   0.38277042   0.00021772 1.0
  0.92385611   0.38273996   0.00014321 1.0
  0.92387462   0.38269528   0.00002487 1.0
  0.92391244   0.38260392   0.00019412 1.0
  0.92400043   0.38239072   0.00072838 1.0
  0.92409071   0.38217111   0.00127090 1.0
  0.92411483   0.38211223   0.00142508 1.0
  0.92407587   0.38220726   0.00118660 1.0
  0.92397217   0.38245931   0.00055692 1.0
  0.92379952   0.38287625   0.00047839 1.0
  0.92362487   0.38329467   0.00151487 1.0
  0.92353944   0.38349813   0.00202299 1.0
  0.92354701   0.38348011   0.00198141 1.0
  0.92364574   0.38324485   0.00139246 1.0
  0.92382835   0.38280684   0.00030661 1.0
  0.92398930   0.38241776   0.00065306 1.0
  0.92408168   0.38219314   0.00120767 1.0
  0.92410722   0.38213081   0.00137196 1.0
  0.92407102   0.38221911   0.00114415 1.0
  0.92397197   0.38245980   0.00055201 1.0
  0.92388993   0.38265832   0.00006092 1.0
  0.92384477   0.38276730   0.00020701 1.0
  0.92382672   0.38281078   0.00031325 1.0
  0.92383585   0.38278880   0.00025897 1.0
  0.92387315   0.38269884   0.00004279 1.0
  0.92390723   0.38261651   0.00016353 1.0
  0.92391992   0.38258584   0.00024451 1.0
  0.92392758   0.38256730   0.00028830 1.0
  0.92393155   0.38255770   0.00031599 1.0
  0.92393509   0.38254912   0.00033360 1.0
  0.92393509   0.38254912   0.00033360 1.0
  0.92391084   0.38260782   0.00012634 1.0
  0.92390565   0.38262035   0.00010517 1.0
  0.92389590   0.38264390   0.00006889 1.0
  0.92388284   0.38267546   0.00001178 1.0
  0.92385643   0.38273920   0.00009333 1.0
  0.92379313   0.38289181   0.00035040 1.0
  0.92372733   0.38305019   0.00061192 1.0
  0.92370999   0.38309187   0.00068539 1.0
  0.92373770   0.38302525   0.00057122 1.0
  0.92381374   0.38284214   0.00026792 1.0
  0.92393668   0.38254537   0.00023025 1.0
  0.92405970   0.38224748   0.00072914 1.0
  0.92412035   0.38210030   0.00097310 1.0
  0.92411494   0.38211343   0.00095332 1.0
  0.92404575   0.38228133   0.00066981 1.0
  0.92391623   0.38259479   0.00014782 1.0
  0.92380101   0.38287282   0.00031397 1.0
  0.92373463   0.38303264   0.00058146 1.0
  0.92371491   0.38308005   0.00065970 1.0
  0.92374254   0.38301361   0.00055014 1.0
  0.92381394   0.38284165   0.00026561 1.0
  0.92387192   0.38270182   0.00002930 1.0
  0.92390488   0.38262221   0.00009989 1.0
  0.92391570   0.38259609   0.00015071 1.0
  0.92391164   0.38260588   0.00012443 1.0
  0.92388361   0.38267358   0.00002025 1.0
  0.92386071   0.38272887   0.00007839 1.0
  0.92385026   0.38275407   0.00011789 1.0
  0.92384522   0.38276624   0.00013884 1.0
  0.92384118   0.38277598   0.00015237 1.0
  0.92384222   0.38277346   0.00016060 1.0
  0.92384222   0.38277346   0.00016060 1.0
  0.92393106   0.38255901   0.00003262 1.0
  0.92392229   0.38258020   0.00002665 1.0
  0.92390712   0.38261681   0.00001758 1.0
  0.92388438   0.38267173   0.00000316 1.0
  0.92384225   0.38277343   0.00002396 1.0
  0.92373917   0.38302212   0.00008932 1.0
  0.92363505   0.38327311   0.00015547 1.0
  0.92360521   0.38334499   0.00017467 1.0
  0.92365084   0.38323505   0.00014464 1.0
  0.92377363   0.38293900   0.00006828 1.0
  0.92397055   0.38246362   0.00005933 1.0
  0.92417126   0.38197833   0.00018651 1.0
  0.92426807   0.38174399   0.00024887 1.0
  0.92425865   0.38176679   0.00024396 1.0
  0.92414704   0.38203694   0.00017106 1.0
  0.92393854   0.38254095   0.00003710 1.0
  0.92375499   0.38298397   0.00008069 1.0
  0.92364601   0.38324669   0.00014955 1.0
  0.92361651   0.38331776   0.00016990 1.0
  0.92365935   0.38321453   0.00014103 1.0
  0.92377289   0.38294079   0.00006828 1.0
  0.92386709   0.38271346   0.00000780 1.0
  0.92392045   0.38258463   0.00002512 1.0
  0.92393956   0.38253848   0.00003898 1.0
  0.92392862   0.38256491   0.00003161 1.0
  0.92388790   0.38266323   0.00000546 1.0
  0.92384815   0.38275919   0.00001999 1.0
  0.92383295   0.38279587   0.00002988 1.0
  0.92382389   0.38281774   0.00003563 1.0
  0.92381865   0.38283039   0.00003853 1.0
  0.92381748   0.38283319   0.00004129 1.0
  0.92381748   0.38283319   0.00004129 1.0
  0.92379959   0.38287637   0.00005780 1.0
  0.92381399   0.38284163   0.00004785 1.0
  0.92383611   0.38278824   0.00003232 1.0
  0.92387185   0.38270199   0.00000545 1.0
  0.92393866   0.38254065   0.00004287 1.0
  0.92409985   0.38215106   0.00015940 1.0
  0.92426582   0.38174942   0.00028005 1.0
  0.92431071   0.38164068   0.00031325 1.0
  0.92423937   0.38181346   0.00026099 1.0
  0.92404799   0.38227648   0.00012184 1.0
  0.92373417   0.38303418   0.00010509 1.0
  0.92341927   0.38379258   0.00033490 1.0
  0.92326423   0.38416528   0.00044750 1.0
  0.92327740   0.38413363   0.00043768 1.0
  0.92345623   0.38370366   0.00030632 1.0
  0.92378548   0.38291042   0.00006698 1.0
  0.92407753   0.38220505   0.00014464 1.0
  0.92424642   0.38179638   0.00026792 1.0
  0.92429532   0.38167797   0.00030401 1.0
  0.92422608   0.38184563   0.00025464 1.0
  0.92404717   0.38227845   0.00012212 1.0
  0.92389802   0.38263879   0.00001415 1.0
  0.92381683   0.38283477   0.00004648 1.0
  0.92378479   0.38291208   0.00006929 1.0
  0.92380054   0.38287407   0.00005630 1.0
  0.92386673   0.38271434   0.00001063 1.0
  0.92392849   0.38256522   0.00003685 1.0
  0.92395389   0.38250388   0.00005322 1.0
  0.92396793   0.38246994   0.00006370 1.0
  0.92397460   0.38245382   0.00007033 1.0
  0.92398183   0.38243636   0.00007184 1.0
  0.92398183   0.38243636   0.00007184 1.0
  0.92392168   0.38258155   0.00029437 1.0
  0.92391199   0.38260499   0.00024149 1.0
  0.92390144   0.38263050   0.00015984 1.0
  0.92388345   0.38267397   0.00002759 1.0
  0.92384983   0.38275507   0.00021555 1.0
  0.92376852   0.38295048   0.00080980 1.0
  0.92368519   0.38314966   0.00141338 1.0
  0.92366127   0.38320667   0.00158430 1.0
  0.92369811   0.38311885   0.00131941 1.0
  0.92379536   0.38288607   0.00061841 1.0
  0.92395193   0.38250824   0.00053296 1.0
  0.92410739   0.38212915   0.00168593 1.0
  0.92418239   0.38194482   0.00225065 1.0
  0.92417759   0.38195670   0.00220575 1.0
  0.92408994   0.38217194   0.00154849 1.0
  0.92392672   0.38256933   0.00034097 1.0
  0.92378054   0.38292165   0.00072798 1.0
  0.92369624   0.38312327   0.00134510 1.0
  0.92367047   0.38318471   0.00152742 1.0
  0.92370565   0.38310083   0.00127523 1.0
  0.92379618   0.38288410   0.00061423 1.0
  0.92387049   0.38270527   0.00006871 1.0
  0.92391058   0.38260840   0.00023082 1.0
  0.92392672   0.38256933   0.00034934 1.0
  0.92391960   0.38258659   0.00028770 1.0
  0.92388493   0.38267040   0.00004753 1.0
  0.92385488   0.38274289   0.00018159 1.0
  0.92384219   0.38277347   0.00027200 1.0
  0.92383581   0.38278883   0.00032110 1.0
  0.92383194   0.38279816   0.00035131 1.0
  0.92382881   0.38280568   0.00037117 1.0
  0.92382881   0.38280568   0.00037117 1.0
  0.92395594   0.38249892   0.00002931 1.0
  0.92394195   0.38253270   0.00002457 1.0
  0.92392101   0.38258328   0.00001616 1.0
  0.92388654   0.38266652   0.00000316 1.0
  0.92382364   0.38281835   0.00002192 1.0
  0.92366902   0.38319126   0.00008214 1.0
  0.92351324   0.38356652   0.00014363 1.0
  0.92346744   0.38367677   0.00016023 1.0
  0.92353723   0.38350876   0.00013338 1.0
  0.92371797   0.38307323   0.00006279 1.0
  0.92401824   0.38234839   0.00005500 1.0
  0.92431617   0.38162756   0.00017236 1.0
  0.92446227   0.38127347   0.00022967 1.0
  0.92445002   0.38130318   0.00022476 1.0
  0.92428023   0.38171460   0.00015792 1.0
  0.92396884   0.38246775   0.00003407 1.0
  0.92369041   0.38313970   0.00007478 1.0
  0.92353035   0.38352533   0.00013873 1.0
  0.92348325   0.38363870   0.00015663 1.0
  0.92354861   0.38348135   0.00013107 1.0
  0.92372076   0.38306652   0.00006337 1.0
  0.92386179   0.38272627   0.00000722 1.0
  0.92393895   0.38253996   0.00002339 1.0
  0.92397047   0.38246380   0.00003594 1.0
  0.92395410   0.38250336   0.00002930 1.0
  0.92389135   0.38265489   0.00000474 1.0
  0.92383243   0.38279712   0.00001794 1.0
  0.92380880   0.38285414   0.00002803 1.0
  0.92379670   0.38288334   0.00003232 1.0
  0.92378789   0.38290460   0.00003581 1.0
  0.92378228   0.38291813   0.00003798 1.0
  0.92378228   0.38291813   0.00003798 1.0
  0.92380192   0.38287073   0.00010900 1.0
  0.92381580   0.38283724   0.00009184 1.0
  0.92383745   0.38278502   0.00005969 1.0
  0.92387287   0.38269952   0.00001091 1.0
  0.92393617   0.38254667   0.00008092 1.0
  0.92409199   0.38216999   0.00030445 1.0
  0.92425162   0.38178352   0.00053123 1.0
  0.92429581   0.38167644   0.00059445 1.0
  0.92422775   0.38184134   0.00049514 1.0
  0.92404213   0.38229058   0.00023212 1.0
  0.92374000   0.38302006   0.00020094 1.0
  0.92343379   0.38375725   0.00063401 1.0
  0.92328631   0.38411154   0.00084563 1.0
  0.92329792   0.38408366   0.00083004 1.0
  0.92347037   0.38366932   0.00058147 1.0
  0.92378948   0.38290074   0.00012790 1.0
  0.92407138   0.38221984   0.00027398 1.0
  0.92423284   0.38182901   0.00050698 1.0
  0.92428009   0.38171454   0.00057540 1.0
  0.92421427   0.38187401   0.00047984 1.0
  0.92404185   0.38229126   0.00023183 1.0
  0.92389626   0.38264304   0.00002627 1.0
  0.92381982   0.38282756   0.00008719 1.0
  0.92378764   0.38290518   0.00013165 1.0
  0.92380279   0.38286865   0.00010769 1.0
  0.92386734   0.38271287   0.00001781 1.0
  0.92392712   0.38256851   0.00006792 1.0
  0.92395157   0.38250946   0.00010208 1.0
  0.92396424   0.38247885   0.00012032 1.0
  0.92397193   0.38246026   0.00013166 1.0
  0.92397847   0.38244446   0.00014038 1.0
  0.92397847   0.38244446   0.00014038 1.0
  0.92394037   0.38253644   0.00026672 1.0
  0.92392953   0.38256264   0.00021885 1.0
  0.92391400   0.38260019   0.00014474 1.0
  0.92388530   0.38266950   0.00002487 1.0
  0.92383429   0.38279259   0.00019556 1.0
  0.92370832   0.38309581   0.00073370 1.0
  0.92358213   0.38339851   0.00128057 1.0
  0.92354624   0.38348441   0.00143474 1.0
  0.92360211   0.38335063   0.00119555 1.0
  0.92374886   0.38299833   0.00056111 1.0
  0.92399164   0.38241237   0.00048215 1.0
  0.92423250   0.38182714   0.00152511 1.0
  0.92435060   0.38153875   0.00203713 1.0
  0.92433963   0.38156553   0.00199644 1.0
  0.92420376   0.38189716   0.00140183 1.0
  0.92395161   0.38250926   0.00030921 1.0
  0.92372587   0.38305362   0.00065725 1.0
  0.92359542   0.38336670   0.00121648 1.0
  0.92355687   0.38345900   0.00138104 1.0
  0.92361088   0.38332965   0.00115253 1.0
  0.92374846   0.38299932   0.00055563 1.0
  0.92386600   0.38271611   0.00006164 1.0
  0.92392747   0.38256762   0.00020874 1.0
  0.92395314   0.38250556   0.00031585 1.0
  0.92393912   0.38253945   0.00026013 1.0
  0.92389057   0.38265679   0.00004351 1.0
  0.92384104   0.38277630   0.00016474 1.0
  0.92382232   0.38282146   0.00024670 1.0
  0.92381231   0.38284557   0.00029031 1.0
  0.92380562   0.38286168   0.00031855 1.0
  0.92380144   0.38287176   0.00033525 1.0
  0.92380144   0.38287176   0.00033525 1.0
  0.92390034   0.38263320   0.00002931 1.0
  0.92389538   0.38264516   0.00002457 1.0
  0.92389023   0.38265759   0.00001616 1.0
  0.92388191   0.38267769   0.00000316 1.0
  0.92386471   0.38271921   0.00002192 1.0
  0.92382404   0.38281737   0.00008214 1.0
  0.92378302   0.38291633   0.00014349 1.0
  0.92377321   0.38293998   0.00016038 1.0
  0.92379009   0.38289926   0.00013396 1.0
  0.92383690   0.38278634   0.00006222 1.0
  0.92391604   0.38259529   0.00005384 1.0
  0.92399336   0.38240847   0.00017164 1.0
  0.92403160   0.38231603   0.00022851 1.0
  0.92402895   0.38232244   0.00022361 1.0
  0.92398426   0.38243046   0.00015735 1.0
  0.92390366   0.38262517   0.00003407 1.0