# vtk DataFile Version 3.0
trk2vtk output
ASCII
DATASET POLYDATA
POINTS 3197 float
  0.83794272   6.69678164   1.00090528
  1.09854198   6.59028292   1.00092256
  1.77287221   6.32703018   1.00095868
  2.69996071   5.99345016   1.00099123
  3.71379328   5.66504049   1.00099719
  4.64095402   5.39685678   1.00095427
  5.42428398   5.19326496   1.00081944
  6.20836067   5.01007795   1.00058424
  6.99682665   4.84666204   1.00032151
  7.78925037   4.70349026   1.00010228
  8.58515835   4.58102703   1.00000000
  9.38403893   4.47974062   1.00008941
 10.18530178   4.39970684   1.00037146
 10.98832893   4.34048128   1.00074732
 11.79254913   4.30158091   1.00111520
 12.59744358   4.28250694   1.00137353
 13.40254211   4.28279829   1.00142992
 14.20740223   4.30257273   1.00130689
 15.01155281   4.34220552   1.00108111
 15.81448555   4.40204334   1.00082481
 16.61565208   4.48242092   1.00061095
 17.41447449   4.58362913   1.00050771
 18.21041489   4.70550346   1.00049591
 19.00296593   4.84775305   1.00053442
 19.79163170   5.01013184   1.00059271
 20.57593727   5.19238567   1.00064111
 21.35946274   5.39535141   1.00064898
 22.28678703   5.66315889   1.00061297
 23.30077171   5.99132729   1.00055265
 24.22798538   6.32477331   1.00048745
 24.90239906   6.58796740   1.00043511
 25.16302681   6.69445372   1.00041342
  0.89022267   6.82299662   2.31114149
  1.14965820   6.71684790   2.31117082
  1.82100415   6.45449686   2.31123257
  2.74404502   6.12213898   2.31128788
  3.75352430   5.79509640   2.31129813
  4.67679501   5.52834177   2.31122518
  5.45698595   5.32651520   2.31099391
  6.23801708   5.14567661   2.31059289
  7.02337933   4.98473024   2.31014347
  7.81254196   4.84366035   2.30976892
  8.60498905   4.72243595   2.30959320
  9.40021324   4.62100744   2.30974388
 10.19772530   4.53943682   2.31022143
 10.99704933   4.47793770   2.31085920
 11.79769230   4.43671942   2.31148434
 12.59914017   4.41597891   2.31192303
 13.40086269   4.41588402   2.31201982
 14.20232201   4.43639660   2.31181431
 15.00298882   4.47737694   2.31143355
 15.80234528   4.53867674   2.31100130
 16.59989166   4.62013626   2.31064081
 17.39513397   4.72159004   2.31046700
 18.18757057   4.84300613   2.31044769
 18.97669411   4.98437643   2.31051326
 19.76199150   5.14565945   2.31061220
 20.54294968   5.32680225   2.31069374
 21.32307625   5.52883196   2.31070757
 22.24629402   5.79570961   2.31064534
 23.25572395   6.12283039   2.31054354
 24.17872429   6.45523262   2.31043196
 24.85004234   6.71760225   2.31034207
 25.10946846   6.82375526   2.31030536
  1.03080606   7.16239452   1.99712002
  1.28724003   7.05750370   1.99718130
  1.95081258   6.79825401   1.99731016
  2.86315370   6.46980429   1.99742579
  3.86091232   6.14656925   1.99744749
  4.77344179   5.88284540   1.99729443
  5.54452181   5.68314981   1.99681139
  6.31640768   5.50403881   1.99597263
  7.09258366   5.34454012   1.99503279
  7.87255192   5.20475388   1.99424994
  8.65580845   5.08476686   1.99388242
  9.44185257   4.98465300   1.99419856
 10.23017979   4.90447617   1.99519825
 11.02028370   4.84429264   1.99653327
 11.81166077   4.80414391   1.99784112
 12.60380077   4.78406048   1.99875975
 13.39619637   4.78405809   1.99896228
 14.18833828   4.80413771   1.99853063
 14.97971535   4.84428167   1.99773347
 15.76982307   4.90446138   1.99682760
 16.55815125   4.98463631   1.99607193
 17.34419632   5.08475065   1.99570799
 18.12745476   5.20474148   1.99566698
 18.90742111   5.34453487   1.99580371
 19.68359566   5.50404024   1.99601066
 20.45548248   5.68315792   1.99618113
 21.22656059   5.88285732   1.99620974
 22.13908768   6.14658403   1.99608088
 23.13684654   6.46982050   1.99586701
 24.04918671   6.79827118   1.99563384
 24.71275902   7.05752182   1.99544668
 24.96919250   7.16241264   1.99536967
  0.72187054   6.41655827   2.18529105
  0.98491693   6.30894470   2.18528223
  1.66560316   6.04297018   2.18526292
  2.60148382   5.70601225   2.18524575
  3.62499619   5.37442732   2.18524218
  4.56109285   5.10393667   2.18526554
  5.35210657   4.89921618   2.18533659
  6.14396429   4.71570873   2.18546104
  6.94021511   4.55235004   2.18560028
  7.74033451   4.40917206   2.18571639
  8.54380322   4.28619099   2.18577075
  9.35010338   4.18341017   2.18572378
 10.15873528   4.10089302   2.18557572
 10.96919727   4.03879070   2.18537712
 11.78098392   3.99724627   2.18518305
 12.59357262   3.97639179   2.18504667
 13.40643311   3.97633362   2.18501663
 14.21902847   3.99704885   2.18508077
 15.03082848   4.03844738   2.18519974
 15.84131050   4.10042763   2.18533421
 16.64996147   4.18287706   2.18544674
 17.45627403   4.28567362   2.18550110
 18.25973701   4.40877104   2.18550706
 19.05983162   4.55213261   2.18548679
 19.85604477   4.71569777   2.18545604
 20.64785576   4.89939117   2.18543053
 21.43883133   5.10423613   2.18542647
 22.37489510   5.37480164   2.18544531
 23.39837646   5.70643473   2.18547726
 24.33423233   6.04341841   2.18551183
 25.01490211   6.30940533   2.18553948
 25.27794266   6.41702175   2.18555093
  0.43147635   5.71548510   2.29444599
  0.70074081   5.60531759   2.29437089
  1.39752221   5.33303213   2.29421306
  2.35553288   4.98808765   2.29407072
  3.40325308   4.64865637   2.29404402
  4.36149740   4.37179136   2.29423213
  5.17123985   4.16230154   2.29482532
  5.98185110   3.97458029   2.29585481
  6.79695749   3.80750275   2.29700851
  7.61601353   3.66105795   2.29796958
  8.43848133   3.53522730   2.29842043
  9.26383209   3.42997026   2.29803181
 10.09156227   3.34534931   2.29680395
 10.92117119   3.28157473   2.29516459
 11.75214386   3.23884726   2.29355812
 12.58395100   3.21735859   2.29242992
 13.41604137   3.21726704   2.29218197
 14.24785995   3.23853683   2.29271197
 15.07885742   3.28103638   2.29369187
 15.90849876   3.34461975   2.29480410
 16.73626137   3.42913342   2.29573274
 17.56163216   3.53441477   2.29618025
 18.38409233   3.66042805   2.29623008
 19.20310974   3.80715942   2.29606271
 20.01815605   3.97456169   2.29580832
 20.82869911   4.16257334   2.29559875
 21.63838005   4.37225819   2.29556370
 22.59657288   4.64924049   2.29572225
 23.64424706   4.98874712   2.29598451
 24.60221863   5.33373308   2.29627109
 25.29897499   5.60603571   2.29650116
 25.56822968   5.71620798   2.29659557
  0.93063843   6.92056894   1.95258641
  1.18921995   6.81480408   1.95262492
  1.85834861   6.55339193   1.95270550
  2.77832556   6.22220135   1.95277858
  3.78443384   5.89626265   1.95279193
  4.70459700   5.63032246   1.95269561
  5.48212242   5.42892599   1.95239282
  6.26045704   5.24826288   1.95186627
  7.04311848   5.08737040   1.95127654
  7.82960987   4.94636393   1.95078564
  8.61942291   4.82534885   1.95055497
  9.41205406   4.72441626   1.95075357
 10.20698929   4.64363289   1.95138085
 11.00371552   4.58303070   1.95221841
 11.80171871   4.54263067   1.95303929
 12.60048962   4.52243805   1.95361567
 13.39951324   4.52244949   1.95374262
 14.19828129   4.54266834   1.95347202
 14.99628353   4.58309650   1.95297170
 15.79300690   4.64372110   1.95240319
 16.58793831   4.72451830   1.95192897
 17.38056755   4.82544756   1.95170033
 18.17038155   4.94644022   1.95167518
 18.95687675   5.08741188   1.95176065
 19.73954773   5.24826574   1.95189047
 20.51789093   5.42889357   1.95199764
 21.29542351   5.63026619   1.95201552
 22.21559334   5.89619255   1.95193446
 23.22170639   6.22212219   1.95180058
 24.14168930   6.55330801   1.95165443
 24.81081963   6.81471825   1.95153689
 25.06940269   6.92048264   1.95148849
  1.09821367   7.32513142   2.36426973
  1.35319138   7.22080135   2.36434627
  2.01300454   6.96294546   2.36450768
  2.92019033   6.63628578   2.36465240
  3.91233349   6.31485796   2.36467957
  4.81975031   6.05269670   2.36448741
  5.58655024   5.85437679   2.36388302
  6.35418081   5.67671299   2.36283350
  7.12606621   5.51860905   2.36165643
  7.90168095   5.38002777   2.36067653
  8.68051529   5.26091623   2.36021662
  9.46206856   5.16120434   2.36061192
 10.24586964   5.08095121   2.36186290
 11.03145313   5.02039576   2.36353326
 11.81833649   4.97977495   2.36516953
 12.60601807   4.95931292   2.36631942
 13.39397335   4.95920277   2.36657286
 14.18167019   4.97939968   2.36603332
 14.96858311   5.01974487   2.36503625
 15.75420570   5.08006907   2.36390328
 16.53804398   5.16019297   2.36295843
 17.31962204   5.25993490   2.36250257
 18.09844589   5.37926865   2.36245203
 18.87401581   5.51819897   2.36262298
 19.64582634   5.67669487   2.36288190
 20.41337395   5.85471106   2.36309576
 21.18009949   6.05326843   2.36313128
 22.08745575   6.31557178   2.36296916
 23.07954025   6.63709021   2.36270213
 23.98667908   6.96380091   2.36241055
 24.64645958   7.22167778   2.36217594
 24.90142632   7.32601357   2.36207962
  0.60007370   6.12251520   1.72062695
  0.86574519   6.01387215   1.72059047
  1.55321503   5.74534082   1.72051239
  2.49839973   5.40511703   1.72044277
  3.53206301   5.07025909   1.72042990
  4.47741175   4.79698706   1.72052228
  5.27619219   4.58991766   1.72081316
  6.07578754   4.40403318   1.72131848
  6.87983704   4.23842239   1.72188449
  7.68784142   4.09329367   1.72235620
  8.49929333   3.96883917   1.72257745
  9.31367397   3.86524534   1.72238731
 10.13043499   3.78258038   1.72178519
 10.94902706   3.72076464   1.72098160
 11.76890945   3.67969561   1.72019434
 12.58955288   3.65925837   1.71964109
 13.41044712   3.65933657   1.71951914
 14.23108196   3.67996359   1.71977842
 15.05094528   3.72123003   1.72025847
 15.86951065   3.78321123   1.72080326
 16.68624687   3.86596823   1.72125769
 17.50061035   3.96954107   1.72147703
 18.31207275   4.09383631   1.72150123
 19.12011147   4.23871613   1.72141874
 19.92421341   4.40404558   1.72129428
 20.72387123   4.58967829   1.72119153
 21.52270508   4.79657793   1.72117472
 22.46809769   5.06974888   1.72125232
 23.50180244   5.40454149   1.72138119
 24.44702148   5.74473000   1.72152150
[...]
POINT_DATA 3197
COLOR_SCALARS tangents 4
  0.92568391   0.37829789   0.00006140 1.0
  0.93153107   0.36366173   0.00004990 1.0
  0.94094298   0.33856506   0.00003303 1.0
  0.95133315   0.30816430   0.00000559 1.0
  0.96062095   0.27786216   0.00004446 1.0
  0.96784475   0.25154824   0.00016658 1.0
  0.97377633   0.22750730   0.00029210 1.0
  0.97919008   0.20294501   0.00032629 1.0
  0.98406713   0.17779711   0.00027224 1.0
  0.98836873   0.15207641   0.00012701 1.0
  0.99205834   0.12577854   0.00011103 1.0
  0.99504850   0.09938997   0.00035026 1.0
  0.99729119   0.07355309   0.00046679 1.0
  0.99883210   0.04831381   0.00045690 1.0
  0.99971928   0.02369082   0.00032085 1.0
  0.99999993   0.00036188   0.00007004 1.0
  0.99969831   0.02456138   0.00015281 1.0
  0.99878765   0.04922554   0.00028043 1.0
  0.99723454   0.07431798   0.00031832 1.0
  0.99500502   0.09982456   0.00026560 1.0
  0.99206931   0.12569197   0.00012821 1.0
  0.98847934   0.15135588   0.00001466 1.0
  0.98427189   0.17666025   0.00004782 1.0
  0.97945547   0.20166057   0.00007240 1.0
  0.97404714   0.22634524   0.00006011 1.0
  0.96804805   0.25076477   0.00000972 1.0
  0.96073799   0.27745722   0.00003730 1.0
  0.95141304   0.30791756   0.00005660 1.0
  0.94100085   0.33840419   0.00006618 1.0
  0.93157375   0.36355238   0.00007229 1.0
  0.92571381   0.37822472   0.00007706 1.0
  0.92571381   0.37822472   0.00007706 1.0
  0.92552695   0.37868174   0.00010462 1.0
  0.93140725   0.36397875   0.00008567 1.0
  0.94086689   0.33877647   0.00005638 1.0
  0.95132125   0.30820103   0.00000966 1.0
  0.96070531   0.27757037   0.00007591 1.0
  0.96813091   0.25044452   0.00028698 1.0
  0.97422666   0.22557074   0.00050022 1.0
  0.97964024   0.20076027   0.00056059 1.0
  0.98439551   0.17596951   0.00046722 1.0
  0.98850077   0.15121567   0.00021919 1.0
  0.99196378   0.12652206   0.00018796 1.0
  0.99480977   0.10175051   0.00059569 1.0
  0.99705296   0.07671217   0.00079553 1.0
  0.99867715   0.05141337   0.00077976 1.0
  0.99966516   0.02587013   0.00054719 1.0
  0.99999999   0.00011836   0.00012074 1.0
  0.99967260   0.02558566   0.00025634 1.0
  0.99869262   0.05111585   0.00047492 1.0
  0.99707236   0.07646193   0.00053917 1.0
  0.99482431   0.10160903   0.00044966 1.0
  0.99196017   0.12655025   0.00021680 1.0
  0.98846473   0.15145126   0.00002409 1.0
  0.98432912   0.17634108   0.00008178 1.0
  0.97955445   0.20117919   0.00012342 1.0
  0.97413868   0.22595092   0.00010171 1.0
  0.96806479   0.25070014   0.00001716 1.0
  0.96066692   0.27770320   0.00006475 1.0
  0.95129522   0.30828136   0.00009594 1.0
  0.94084773   0.33882965   0.00011374 1.0
  0.93139337   0.36401425   0.00012471 1.0
  0.92551676   0.37870663   0.00013099 1.0
  0.92551676   0.37870663   0.00013099 1.0
  0.92556462   0.37858961   0.00022116 1.0
  0.93143751   0.36390126   0.00018088 1.0
  0.94088513   0.33872579   0.00011925 1.0
  0.95132415   0.30819207   0.00002069 1.0
  0.96068491   0.27764092   0.00016114 1.0
  0.96806197   0.25071030   0.00060643 1.0
  0.97411800   0.22603763   0.00105851 1.0
  0.97953162   0.20128684   0.00118608 1.0
  0.98431635   0.17640959   0.00098795 1.0
  0.98846887   0.15142347   0.00046381 1.0
  0.99198647   0.12634355   0.00039897 1.0
  0.99486703   0.10118297   0.00126161 1.0
  0.99711009   0.07595153   0.00168480 1.0
  0.99871421   0.05066752   0.00165049 1.0
  0.99967809   0.02534522   0.00115930 1.0
  0.99999997   0.00000301   0.00025560 1.0
  0.99967873   0.02534036   0.00054475 1.0
  0.99871537   0.05066156   0.00100600 1.0
  0.99711124   0.07594644   0.00114320 1.0
  0.99486763   0.10118050   0.00095365 1.0
  0.99198638   0.12634399   0.00045930 1.0
  0.98846831   0.15142783   0.00005175 1.0
  0.98431517   0.17641884   0.00017256 1.0
  0.97953054   0.20129542   0.00026117 1.0
  0.97411673   0.22604548   0.00021513 1.0
  0.96806083   0.25071542   0.00003592 1.0
  0.96068391   0.27764437   0.00013567 1.0
  0.95132376   0.30819323   0.00020391 1.0
  0.94088468   0.33872696   0.00024047 1.0
  0.93143700   0.36390252   0.00026271 1.0
  0.92556436   0.37859021   0.00027796 1.0
  0.92556436   0.37859021   0.00027796 1.0
  0.92554242   0.37864394   0.00003104 1.0
  0.93141957   0.36394724   0.00002643 1.0
  0.94087431   0.33875586   0.00001726 1.0
  0.95132233   0.30819769   0.00000332 1.0
  0.96069702   0.27759906   0.00002398 1.0
  0.96810299   0.25055258   0.00008695 1.0
  0.97418293   0.22576003   0.00015311 1.0
  0.97959659   0.20097388   0.00017130 1.0
  0.98436373   0.17614773   0.00014285 1.0
  0.98848780   0.15130059   0.00006688 1.0
  0.99197311   0.12644895   0.00005778 1.0
  0.99483367   0.10151818   0.00018215 1.0
  0.99707708   0.07640185   0.00024433 1.0
  0.99869302   0.05110966   0.00023876 1.0
  0.99967082   0.02565579   0.00016777 1.0
  1.00000000   0.00007157   0.00003696 1.0
  0.99967522   0.02548440   0.00007890 1.0
  0.99870223   0.05092978   0.00014636 1.0
  0.99708867   0.07625068   0.00016543 1.0
  0.99484233   0.10143336   0.00013844 1.0
  0.99197093   0.12646609   0.00006688 1.0
  0.98846622   0.15144150   0.00000733 1.0
  0.98432361   0.17637186   0.00002493 1.0
  0.97954469   0.20122675   0.00003784 1.0
  0.97412967   0.22598979   0.00003138 1.0
  0.96806310   0.25070666   0.00000496 1.0
  0.96067392   0.27767898   0.00001933 1.0
  0.95130647   0.30824665   0.00002970 1.0
  0.94086320   0.33878672   0.00003476 1.0
  0.93141083   0.36396958   0.00003784 1.0
  0.92553594   0.37865976   0.00004027 1.0
  0.92553594   0.37865976   0.00004027 1.0
  0.92553023   0.37867365   0.00025814 1.0
  0.93140965   0.36397256   0.00021098 1.0
  0.94086842   0.33877218   0.00013979 1.0
  0.95132132   0.30820082   0.00002425 1.0
  0.96070377   0.27757561   0.00018860 1.0
  0.96812531   0.25046532   0.00070921 1.0
  0.97421713   0.22560908   0.00123727 1.0
  0.97963103   0.20080120   0.00138658 1.0
  0.98438846   0.17600575   0.00115506 1.0
  0.98849816   0.15123190   0.00054186 1.0
  0.99196580   0.12650546   0.00046707 1.0
  0.99481378   0.10170233   0.00147571 1.0
  0.99705636   0.07664679   0.00197025 1.0
  0.99867882   0.05135069   0.00193068 1.0
  0.99966556   0.02582507   0.00135587 1.0
  0.99999995   0.00011003   0.00029799 1.0
  0.99967304   0.02556188   0.00063696 1.0
  0.99869407   0.05107602   0.00117765 1.0
  0.99707517   0.07641543   0.00133669 1.0
  0.99482768   0.10157083   0.00111607 1.0
  0.99196248   0.12653120   0.00053784 1.0
  0.98846526   0.15144776   0.00005989 1.0
  0.98432793   0.17634765   0.00020115 1.0
  0.97955217   0.20119011   0.00030574 1.0
  0.97413690   0.22595849   0.00025187 1.0
  0.96806437   0.25070175   0.00004190 1.0
  0.96066843   0.27769792   0.00015896 1.0
  0.95129727   0.30827497   0.00023813 1.0
  0.94085100   0.33882048   0.00028146 1.0
  0.93139741   0.36400380   0.00030755 1.0
  0.92551965   0.37869945   0.00032453 1.0
  0.92551965   0.37869945   0.00032453 1.0
  0.92557013   0.37857617   0.00013782 1.0
  0.93144141   0.36389130   0.00011218 1.0
  0.94088777   0.33871846   0.00007474 1.0
  0.95132451   0.30819096   0.00001262 1.0
  0.96068208   0.27765073   0.00010056 1.0
  0.96805252   0.25074724   0.00037699 1.0
  0.97410297   0.22610387   0.00065899 1.0
  0.97951697   0.20136027   0.00073806 1.0
  0.98430553   0.17647167   0.00061437 1.0
  0.98846451   0.15145243   0.00028869 1.0
  0.99198969   0.12631865   0.00024855 1.0
  0.99487577   0.10110184   0.00078505 1.0
  0.99711908   0.07584487   0.00104823 1.0
  0.99872041   0.05056162   0.00102735 1.0
  0.99968036   0.02527154   0.00072135 1.0
  0.99999999   0.00001432   0.00015889 1.0
  0.99967973   0.02530443   0.00033867 1.0
  0.99871896   0.05059681   0.00062616 1.0
  0.99711723   0.07587305   0.00071150 1.0
  0.99487411   0.10111946   0.00059349 1.0
  0.99199016   0.12631484   0.00028615 1.0
  0.98846877   0.15142485   0.00003148 1.0
  0.98431342   0.17642866   0.00010697 1.0
  0.97952724   0.20131159   0.00016247 1.0
  0.97411345   0.22605965   0.00013412 1.0
  0.96806035   0.25071728   0.00002226 1.0
  0.96068647   0.27763555   0.00008463 1.0
  0.95132745   0.30818188   0.00012658 1.0
  0.94089002   0.33871219   0.00014947 1.0
  0.93144262   0.36388821   0.00016362 1.0
  0.92557152   0.37857276   0.00017324 1.0
  0.92557152   0.37857276   0.00017324 1.0
  0.92552020   0.37869814   0.00027780 1.0
  0.93140164   0.36399304   0.00022785 1.0
  0.94086334   0.33878630   0.00015009 1.0
  0.95132079   0.30820247   0.00002606 1.0
  0.96070891   0.27755784   0.00020345 1.0
  0.96814370   0.25039409   0.00076309 1.0
  0.97424601   0.22548379   0.00133201 1.0
  0.97965941   0.20066193   0.00149391 1.0
  0.98440954   0.17588723   0.00124369 1.0
  0.98850640   0.15117787   0.00058372 1.0
  0.99195936   0.12655586   0.00050172 1.0
  0.99479778   0.10185700   0.00158774 1.0
  0.99704001   0.07685525   0.00211997 1.0
  0.99866807   0.05155364   0.00207666 1.0
  0.99966169   0.02596876   0.00145935 1.0
  0.99999994   0.00013979   0.00032164 1.0
  0.99967121   0.02563204   0.00068474 1.0
  0.99868747   0.05120292   0.00126540 1.0
  0.99706396   0.07655976   0.00143789 1.0
  0.99481542   0.10168997   0.00119917 1.0
  0.99195503   0.12658942   0.00057856 1.0
  0.98846408   0.15145545   0.00006415 1.0
  0.98433171   0.17632649   0.00021696 1.0
  0.97955871   0.20115823   0.00032862 1.0
  0.97414313   0.22593158   0.00027143 1.0
  0.96806536   0.25069795   0.00004485 1.0
  0.96066384   0.27771379   0.00017165 1.0
  0.95128994   0.30829757   0.00025605 1.0
  0.94084085   0.33884866   0.00030242 1.0
  0.93138546   0.36403436   0.00033118 1.0
  0.92550719   0.37872987   0.00034964 1.0
  0.92550719   0.37872987   0.00034964 1.0
  0.92559668   0.37851126   0.00012709 1.0
  0.93146266   0.36383691   0.00010579 1.0
  0.94090096   0.33868183   0.00006930 1.0
  0.95132653   0.30818474   0.00001185 1.0
  0.96066775   0.27770031   0.00009388 1.0
  0.96800326   0.25093736   0.00035249 1.0
  0.97402610   0.22643494   0.00061556 1.0
  0.97943968   0.20173606   0.00068947 1.0
  0.98424937   0.17678476   0.00057460 1.0
  0.98844190   0.15159992   0.00026951 1.0
  0.99200622   0.12618880   0.00023161 1.0
  0.99491694   0.10069626   0.00073346 1.0
  0.99716042   0.07530028   0.00097889 1.0
  0.99874732   0.05002862   0.00095901 1.0
  0.99968981   0.02489620   0.00067396 1.0
  0.99999998   0.00009526   0.00014856 1.0
  0.99968420   0.02512751   0.00031585 1.0
  0.99873551   0.05026967   0.00058479 1.0
  0.99714534   0.07550315   0.00066364 1.0
  0.99490552   0.10081026   0.00055356 1.0
  0.99200907   0.12616627   0.00026719 1.0
  0.98847128   0.15140846   0.00002948 1.0
  0.98430354   0.17648377   0.00010049 1.0
  0.97951016   0.20139471   0.00015160 1.0
  0.97409777   0.22612723   0.00012517 1.0
  0.96805735   0.25072888   0.00002037 1.0
  0.96069859   0.27759361   0.00007886 1.0
  0.95134777   0.30811913   0.00011860 1.0
  0.94091606   0.33863984   0.00013967 1.0
  0.93147392   0.36380806   0.00015312 1.0
  0.92560478   0.37849143   0.00016197 1.0
  0.92560478   0.37849143   0.00016197 1.0
  0.92561695   0.37846172   0.00003336 1.0
  0.93147851   0.36379636   0.00002709 1.0
  0.94091057   0.33865512   0.00001810 1.0
  0.95132832   0.30817921   0.00000323 1.0
  0.96065680   0.27773820   0.00002451 1.0
  0.96796668   0.25107868   0.00009135 1.0
  0.97396845   0.22668357   0.00015900 1.0
  0.97938229   0.20201561   0.00017864 1.0
  0.98420739   0.17701918   0.00014792 1.0
  0.98842496   0.15171057   0.00006983 1.0
  0.99201818   0.12609490   0.00006053 1.0
  0.99494775   0.10039390   0.00019089 1.0
  0.99719121   0.07489744   0.00025452 1.0
  0.99876751   0.04963271   0.00024951 1.0
  0.99969691   0.02461815   0.00017495 1.0
  0.99999999   0.00015768   0.00003794 1.0
  0.99968751   0.02499753   0.00008253 1.0
  0.99874774   0.05002928   0.00015296 1.0
  0.99716622   0.07522967   0.00017377 1.0
  0.99492858   0.10058382   0.00014439 1.0
  0.99202299   0.12605704   0.00006968 1.0
  0.98847311   0.15139654   0.00000797 1.0
  0.98429620   0.17652475   0.00002569 1.0
  0.97949745   0.20145653   0.00003971 1.0
  0.97408623   0.22617694   0.00003248 1.0
  0.96805502   0.25073786   0.00000543 1.0
  0.96070778   0.27756182   0.00002032 1.0
  0.95136287   0.30807254   0.00003056 1.0
  0.94093588   0.33858481   0.00003643 1.0
  0.93149677   0.36374959   0.00003957 1.0
  0.92562985   0.37843015   0.00004180 1.0
  0.92562985   0.37843015   0.00004180 1.0
  0.92548509   0.37878403   0.00005939 1.0
  0.93137438   0.36406286   0.00004847 1.0
  0.94084644   0.33883325   0.00003275 1.0
  0.95131792   0.30821130   0.00000552 1.0
  0.96072780   0.27749250   0.00004368 1.0
  0.96820711   0.25014990   0.00016149 1.0
  0.97434652   0.22505282   0.00028343 1.0
  0.97975970   0.20017698   0.00031766 1.0
  0.98448274   0.17548126   0.00026414 1.0
  0.98853594   0.15098570   0.00012373 1.0
  0.99193852   0.12672003   0.00010677 1.0
  0.99474538   0.10237928   0.00033931 1.0
  0.99698809   0.07755350   0.00045338 1.0
  0.99863449   0.05223951   0.00044341 1.0
  0.99965006   0.02645113   0.00031032 1.0
  0.99999997   0.00024626   0.00006785 1.0
  0.99966564   0.02585707   0.00014682 1.0
  0.99866684   0.05161849   0.00027142 1.0
  0.99702860   0.07703163   0.00030770 1.0
  0.99477586   0.10208289   0.00025827 1.0
  0.99193099   0.12677890   0.00012344 1.0
  0.98846090   0.15147623   0.00001463 1.0
  0.98434435   0.17625606   0.00004739 1.0
  0.97958070   0.20105136   0.00007020 1.0
  0.97416306   0.22584581   0.00005704 1.0
  0.96806943   0.25068224   0.00001077 1.0
  0.96064791   0.27776894   0.00003733 1.0
  0.95126366   0.30837874   0.00005414 1.0
  0.94080698   0.33894281   0.00006430 1.0
  0.93134566   0.36413631   0.00007157 1.0
  0.92546308   0.37883780   0.00007278 1.0
  0.92546308   0.37883780   0.00007278 1.0
  0.92560847   0.37848232   0.00030952 1.0
  0.93147090   0.36381575   0.00025391 1.0
  0.94090577   0.33866842   0.00016807 1.0
  0.95132747   0.30818183   0.00002890 1.0
  0.96066196   0.27772026   0.00022652 1.0
  0.96798407   0.25101017   0.00085147 1.0
  0.97399495   0.22656485   0.00148607 1.0
  0.97940875   0.20188048   0.00166576 1.0
  0.98422657   0.17690711   0.00138723 1.0
  0.98843277   0.15165828   0.00065020 1.0
  0.99201212   0.12614138   0.00056035 1.0
  0.99493137   0.10054063   0.00177259 1.0
  0.99717369   0.07509350   0.00236638 1.0
  0.99875527   0.04982508   0.00231922 1.0
  0.99969227   0.02475300   0.00162819 1.0
  0.99999993   0.00012811   0.00035852 1.0
  0.99968562   0.02506163   0.00076545 1.0
  0.99874079   0.05014820   0.00141432 1.0
  0.99715476   0.07536447   0.00160600 1.0
  0.99491643   0.10069508   0.00134082 1.0
  0.99201580   0.12611200   0.00064582 1.0
  0.98847226   0.15140208   0.00007225 1.0
  0.98429977   0.17650468   0.00024269 1.0
  0.97950355   0.20142654   0.00036730 1.0
  0.97409193   0.22615220   0.00030250 1.0
  0.96805612   0.25073362   0.00004998 1.0
  0.96070348   0.27757664   0.00019094 1.0
  0.95135571   0.30809453   0.00028599 1.0
  0.94092620   0.33861153   0.00033761 1.0
  0.93148616   0.36377657   0.00036937 1.0
  0.92561757   0.37846000   0.00039025 1.0
  0.92561757   0.37846000   0.00039025 1.0
  0.92564248   0.37839926   0.00002997 1.0
  0.93149904   0.36374377   0.00002512 1.0
  0.94092301   0.33862057   0.00001652 1.0
  0.95133012   0.30817367   0.00000323 1.0
  0.96064293   0.27778618   0.00002253 1.0
  0.96791973   0.25125962   0.00008384 1.0
  0.97389412   0.22700270   0.00014686 1.0
  0.97930831   0.20237391   0.00016383 1.0
  0.98415329   0.17731972   0.00013637 1.0
  0.98840325   0.15185197   0.00006420 1.0
  0.99203374   0.12597243   0.00005623 1.0
  0.99498680   0.10000615   0.00017607 1.0
  0.99723010   0.07437784   0.00023482 1.0
  0.99879271   0.04912305   0.00022996 1.0
  0.99970566   0.02426029   0.00016148 1.0
  0.99999997   0.00023617   0.00003484 1.0
  0.99969171   0.02482919   0.00007646 1.0
  0.99876327   0.04971829   0.00014185 1.0
  0.99719264   0.07487866   0.00016015 1.0
  0.99495826   0.10028978   0.00013402 1.0
  0.99204088   0.12591616   0.00006479 1.0
  0.98847545   0.15138128   0.00000738 1.0
  0.98428691   0.17657652   0.00002391 1.0
  0.97948121   0.20153551   0.00003660 1.0
  0.97407110   0.22624210   0.00002996 1.0
  0.96805230   0.25074838   0.00000499 1.0
  0.96071947   0.27752136   0.00001847 1.0
  0.95138228   0.30801260   0.00002855 1.0
  0.94096097   0.33851507   0.00003305 1.0
  0.93152639   0.36367373   0.00003677 1.0
  0.92566316   0.37834867   0.00003841 1.0
  0.92566316   0.37834867   0.00003841 1.0
  0.92548777   0.37877746   0.00011066 1.0
  0.93137703   0.36405606   0.00009254 1.0
  0.94084817   0.33882846   0.00006015 1.0
  0.95131817   0.30821053   0.00001077 1.0
  0.96072606   0.27749853   0.00008130 1.0
  0.96820139   0.25017189   0.00030707 1.0
  0.97433726   0.22509247   0.00053501 1.0
  0.97975039   0.20022191   0.00059932 1.0
  0.98447603   0.17551837   0.00049896 1.0
  0.98853329   0.15100290   0.00023392 1.0
  0.99194043   0.12670490   0.00020250 1.0
  0.99475028   0.10233020   0.00063891 1.0
  0.99699281   0.07748940   0.00085243 1.0
  0.99863760   0.05217516   0.00083639 1.0
  0.99965112   0.02640650   0.00058560 1.0
  0.99999996   0.00023738   0.00012916 1.0
  0.99966614   0.02583650   0.00027607 1.0
  0.99866878   0.05157912   0.00051113 1.0
  0.99703190   0.07698738   0.00057980 1.0
  0.99477948   0.10204682   0.00048323 1.0
  0.99193333   0.12676045   0.00023391 1.0
  0.98846128   0.15147375   0.00002647 1.0
  0.98434315   0.17626275   0.00008815 1.0
  0.97957874   0.20106090   0.00013237 1.0
  0.97416124   0.22585365   0.00010852 1.0
  0.96806876   0.25068481   0.00001794 1.0
  0.96064958   0.27776316   0.00006820 1.0
  0.95126589   0.30837184   0.00010309 1.0
  0.94081023   0.33893376   0.00012101 1.0
  0.93134906   0.36412761   0.00013267 1.0
  0.92546841   0.37882477   0.00014145 1.0
  0.92546841   0.37882477   0.00014145 1.0
  0.92562632   0.37843870   0.00026494 1.0
  0.93148569   0.36377789   0.00021705 1.0
  0.94091519   0.33864226   0.00014344 1.0
  0.95132891   0.30817739   0.00002466 1.0
  0.96065203   0.27775463   0.00019397 1.0
  0.96794973   0.25114296   0.00072769 1.0
  0.97394149   0.22679584   0.00126992 1.0
  0.97935516   0.20214213   0.00142309 1.0
  0.98418766   0.17712496   0.00118569 1.0
  0.98841723   0.15175989   0.00055633 1.0
  0.99202371   0.12605048   0.00047802 1.0
  0.99496071   0.10025416   0.00151254 1.0
  0.99720318   0.07471101   0.00202041 1.0
  0.99877467   0.04944925   0.00198009 1.0
  0.99969910   0.02449021   0.00139040 1.0
  0.99999994   0.00018441   0.00030669 1.0
  0.99968885   0.02493544   0.00065189 1.0
  0.99875269   0.04991593   0.00120655 1.0
  0.99717491   0.07510213   0.00136974 1.0
  0.99493881   0.10047615   0.00114308 1.0
  0.99202943   0.12600518   0.00055106 1.0
  0.98847397   0.15139091   0.00006099 1.0
  0.98429307   0.17654210   0.00020688 1.0
  0.97949151   0.20148521   0.00031325 1.0
  0.97408082   0.22620011   0.00025799 1.0
  0.96805420   0.25074103   0.00004316 1.0
  0.96071192   0.27754745   0.00016327 1.0
  0.95136979   0.30805108   0.00024478 1.0
  0.94094454   0.33856061   0.00028793 1.0
  0.93150758   0.36372178   0.00031593 1.0
  0.92564190   0.37840054   0.00033249 1.0
  0.92564190   0.37840054   0.00033249 1.0
  0.92558525   0.37853922   0.00002997 1.0
  0.93145388   0.36385941   0.00002512 1.0
  0.94089539   0.33869732   0.00001652 1.0
  0.95132587   0.30818678   0.00000323 1.0
  0.96067357   0.27768020   0.00002253 1.0
  0.96802361   0.25085908   0.00008384 1.0
  0.97405821   0.22629757   0.00014686 1.0
  0.97947219   0.20157926   0.00016383 1.0
  0.98427275   0.17665544   0.00013697 1.0
  0.98845134   0.15153856   0.00006361 1.0
  0.99199938   0.12624272   0.00005505 1.0
  0.99490011   0.10086498   0.00017549 1.0
  0.99714371   0.07552720   0.00023364 1.0
  0.99873664   0.05025015   0.00022862 1.0
  0.99968613   0.02505243   0.00016088 1.0
  1.00000000   0.00006199   0.00003483 1.0