# vtk DataFile Version 3.0
trk2vtk output
ASCII
DATASET POLYDATA
POINTS 6394 float
 56.68318558   7.48841763   0.99865288
 56.96210098   7.41377258   0.99867016
 57.67930603   7.22179031   0.99870622
 58.65547562   6.96039915   0.99873883
 59.71129608   6.67752552   0.99874479
 60.66744232   6.42109776   0.99870181
 61.46908188   6.20557928   0.99856693
 62.26643753   5.99067879   0.99833184
 63.06375122   5.77563667   0.99806911
 63.86112976   5.56081390   0.99784982
 64.65866089   5.34656906   0.99774754
 65.45644379   5.13327408   0.99783695
 66.25447845   4.92093039   0.99811900
 67.05264282   4.70905304   0.99849486
 67.85079956   4.49713850   0.99886280
 68.64880371   4.28468180   0.99912113
 69.44654846   4.07122946   0.99917740
 70.24404907   3.85689545   0.99905443
 71.04141998   3.64205265   0.99882871
 71.83875275   3.42705870   0.99857241
 72.63613892   3.21227360   0.99835855
 73.43367004   2.99803281   0.99825531
 74.23132324   2.78424168   0.99824345
 75.02904510   2.57069731   0.99828196
 75.82678986   2.35725021   0.99834025
 76.62452698   2.14375305   0.99838865
 77.42635345   1.92894578   0.99839658
 78.38250732   1.67255139   0.99836051
 79.43824005   1.38935065   0.99830025
 80.41428375   1.12747407   0.99823505
 81.13137054   0.93505216   0.99818271
 81.41023254   0.86021566   0.99816096
 56.71854401   7.62037659   2.30888915
 56.99742889   7.54561901   2.30891824
 57.71456909   7.35340023   2.30897999
 58.69068146   7.09179497   2.30903530
 59.74648666   6.80888224   2.30904579
 60.70271301   6.55273724   2.30897260
 61.50458908   6.33810902   2.30874157
 62.30235672   6.12475443   2.30834031
 63.10014343   5.91144514   2.30789089
 63.89790344   5.69806528   2.30751657
 64.69561005   5.48449707   2.30734086
 65.49324036   5.27061892   2.30749130
 66.29078674   5.05643129   2.30796909
 67.08829498   4.84209251   2.30860662
 67.88580322   4.62776518   2.30923200
 68.68335724   4.41361475   2.30967045
 69.48100281   4.19978857   2.30976725
 70.27872467   3.98625040   2.30956197
 71.07648468   3.77287769   2.30918097
 71.87426758   3.55955410   2.30874896
 72.67202759   3.34616327   2.30838823
 73.46973419   3.13259363   2.30821443
 74.26741028   2.91887760   2.30819511
 75.06506348   2.70508146   2.30826092
 75.86270142   2.49125266   2.30835962
 76.66034698   2.27744102   2.30844116
 77.46216583   2.06258130   2.30845499
 78.41838837   1.80642581   2.30839276
 79.47422028   1.52361894   2.30829096
 80.45037842   1.26217222   2.30817938
 81.16755676   1.07009625   2.30808949
 81.44645691   0.99540186   2.30805302
 56.81362534   7.97522068   1.99486756
 57.09251785   7.90049076   1.99492884
 57.80966949   7.70832825   1.99505770
 58.78579712   7.44677544   1.99517334
 59.84160995   7.16387081   1.99519503
 60.79781342   6.90765810   1.99504197
 61.59963608   6.69281626   1.99455893
 62.39730453   6.47909021   1.99372029
 63.19496918   6.26536465   1.99278033
 63.99264526   6.05163765   1.99199748
 64.79031372   5.83790684   1.99163008
 65.58797455   5.62416887   1.99194610
 66.38564301   5.41042376   1.99294579
 67.18330383   5.19667530   1.99428082
 67.98096466   4.98292685   1.99558866
 68.77863312   4.76918316   1.99650741
 69.57629395   4.55544710   1.99670982
 70.37397003   4.34171820   1.99627817
 71.17163849   4.12799358   1.99548101
 71.96930695   3.91426992   1.99457514
 72.76697540   3.70054483   1.99381948
 73.56464386   3.48681450   1.99345553
 74.36231232   3.27308035   1.99341452
 75.15998077   3.05934477   1.99355137
 75.95764923   2.84560800   1.99375832
 76.75531769   2.63187122   1.99392867
 77.55713654   2.41702437   1.99395728
 78.51334381   2.16081119   1.99382842
 79.56915283   1.87790966   1.99361455
 80.54528046   1.61635971   1.99338138
 81.26243591   1.42420006   1.99319422
 81.54132843   1.34947181   1.99311721
 56.60468292   7.19544125   2.18303871
 56.88357162   7.12069511   2.18302989
 57.60071564   6.92849827   2.18301058
 58.57683182   6.66691399   2.18299317
 59.63264084   6.38400412   2.18298984
 60.58885956   6.12783241   2.18301296
 61.39071274   5.91311979   2.18308425
 62.18844223   5.69961739   2.18320870
 62.98617935   5.48614311   2.18334794
 63.78390503   5.27262592   2.18346405
 64.58160400   5.05899239   2.18351841
 65.37924194   4.84517097   2.18347144
 66.17684174   4.63116026   2.18332314
 66.97440338   4.41705656   2.18312454
 67.77198029   4.20296001   2.18293047
 68.56958008   3.98897171   2.18279433
 69.36723328   3.77518129   2.18276405
 70.16493225   3.56156588   2.18282843
 70.96265411   3.34805202   2.18294740
 71.76039124   3.13456774   2.18308163
 72.55811310   2.92104244   2.18319440
 73.35581207   2.70740891   2.18324852
 74.15348053   2.49368548   2.18325448
 74.95114136   2.27991295   2.18323421
 75.74879456   2.06612110   2.18320370
 76.54644775   1.85233927   2.18317795
 77.34825897   1.63748527   2.18317413
 78.30447388   1.38130641   2.18319273
 79.36030579   1.09846234   2.18322492
 80.33644867   0.83697426   2.18325949
 81.05361176   0.64486563   2.18328714
 81.33251190   0.57015765   2.18329859
 56.40827942   6.46246147   2.29219365
 56.68716812   6.38770580   2.29211855
 57.40430832   6.19548845   2.29196048
 58.38042068   5.93388557   2.29181814
 59.43622971   5.65097284   2.29179168
 60.39245224   5.39482498   2.29197979
 61.19432831   5.18018770   2.29257298
 61.99209213   4.96681547   2.29360223
 62.78986740   4.75348854   2.29475594
 63.58763123   4.54009199   2.29571724
 64.38533783   4.32651711   2.29616809
 65.18296814   4.11264801   2.29577947
 65.98051453   3.89848232   2.29455161
 66.77803040   3.68417311   2.29291224
 67.57554626   3.46987438   2.29130554
 68.37310028   3.25574446   2.29017758
 69.17074585   3.04192257   2.28992963
 69.96846008   2.82837272   2.29045963
 70.76622009   2.61498213   2.29143953
 71.56399536   2.40163660   2.29255176
 72.36174774   2.18822765   2.29348016
 73.15946198   1.97464967   2.29392767
 73.95713043   1.76093125   2.29397750
 74.75478363   1.54713774   2.29381013
 75.55242920   1.33331418   2.29355574
 76.35008240   1.11950612   2.29334641
 77.15189362   0.90464699   2.29331136
 78.10811615   0.64848852   2.29346991
 79.16394806   0.36567748   2.29373217
 80.14010620   0.10422540   2.29401851
 80.85728455  -0.08785468   2.29424882
 81.13618469  -0.16255021   2.29434299
 56.74587631   7.72238922   1.95033395
 57.02477264   7.64766312   1.95037246
 57.74192810   7.45550919   1.95045304
 58.71805573   7.19396305   1.95052612
 59.77386475   6.91106081   1.95053947
 60.73006821   6.65483809   1.95044315
 61.53188324   6.43996620   1.95014036
 62.32953644   6.22618818   1.94961381
 63.12718964   6.01240492   1.94902408
 63.92485046   5.79862928   1.94853318
 64.72251129   5.58487606   1.94830251
 65.52017975   5.37115717   1.94850111
 66.31786346   5.15747404   1.94912839
 67.11554718   4.94380856   1.94996607
 67.91323090   4.73014164   1.95078683
 68.71091461   4.51645470   1.95136333
 69.50858307   4.30273151   1.95149016
 70.30624390   4.08897543   1.95121956
 71.10390472   3.87520027   1.95071924
 71.90155792   3.66141939   1.95015073
 72.69921875   3.44764709   1.94967663
 73.49687958   3.23389435   1.94944787
 74.29454803   3.02015734   1.94942272
 75.09221649   2.80643010   1.94950819
 75.88988495   2.59270620   1.94963801
 76.68756104   2.37898040   1.94974530
 77.48937988   2.16413522   1.94976306
 78.44557953   1.90791416   1.94968200
 79.50138855   1.62499952   1.94954813
 80.47750854   1.36343503   1.94940197
 81.19466400   1.17126465   1.94928443
 81.47355652   1.09653139   1.94923604
 56.85921478   8.14536381   2.36201715
 57.13809967   8.07060242   2.36209369
 57.85523605   7.87837315   2.36225533
 58.83134842   7.61675930   2.36240005
 59.88715744   7.33384418   2.36242723
 60.84338379   7.07771015   2.36223507
 61.64526749   6.86311769   2.36163044
 62.44305420   6.64982462   2.36058092
 63.24085236   6.43658400   2.35940409
 64.03863525   6.22326136   2.35842419
 64.83634949   6.00971937   2.35796428
 65.63397217   5.79581881   2.35835934
 66.43149567   5.58155727   2.35961032
 67.22897339   5.36711979   2.36128092
 68.02645111   5.15269661   2.36291718
 68.82398987   4.93847847   2.36406708
 69.62162781   4.72463846   2.36432028
 70.41935730   4.51113224   2.36378098
 71.21714020   4.29781961   2.36278367
 72.01493073   4.08456421   2.36165071
 72.81270599   3.87122917   2.36070585
 73.61042786   3.65768719   2.36025000
 74.40810394   3.44397449   2.36019969
 75.20574951   3.23016739   2.36037064
 76.00338745   3.01632404   2.36062932
 76.80103302   2.80249882   2.36084318
 77.60285187   2.58763719   2.36087871
 78.55907440   2.33149076   2.36071682
 79.61491394   2.04869914   2.36044955
 80.59107208   1.78726959   2.36015821
 81.30825806   1.59520698   2.35992360
 81.58715820   1.52051806   2.35982728
 56.52230835   6.88801575   1.71837449
 56.80120850   6.81330919   1.71833801
 57.51837540   6.62119675   1.71825993
 58.49451447   6.35968828   1.71819031
 59.55032349   6.07679319   1.71817744
 60.50651550   5.82052135   1.71826982
 61.30828476   5.60549259   1.71856070
 62.10586929   5.39144325   1.71906602
 62.90344238   5.17735481   1.71963203
 63.70102692   4.96332598   1.72010374
 64.49865723   4.74945354   1.72032499
 65.29636383   4.53583860   1.72013485
 66.09413147   4.32248116   1.71953273
 66.89192963   4.10924959   1.71872914
 67.68972778   3.89600849   1.71794188
 68.48748779   3.68262053   1.71738875
 69.28517914   3.46896172   1.71726668
 70.08280182   3.25506496   1.71752596
 70.88038635   3.04102898   1.71800613
 71.67796326   2.82695222   1.71855092
 72.47555542   2.61293268   1.71900523
 73.27318573   2.39906049   1.71922457
 74.07084656   2.18531036   1.71924877
 74.86853027   1.97162771   1.71916628
 75.66622162   1.75797105   1.71904182
 76.46390533   1.54430103   1.71893907
 77.26572418   1.32946515   1.71892226
 78.22191620   1.07320237   1.71899986
 79.27770996   0.79021835   1.71912873
 80.25381470   0.52857864   1.71926904
[...]
POINT_DATA 6394
COLOR_SCALARS tangents 4
  0.96600381   0.25852783   0.00005987 1.0
  0.96599053   0.25857745   0.00004857 1.0
  0.96596853   0.25865960   0.00003226 1.0
  0.96593328   0.25879121   0.00000545 1.0
  0.96586793   0.25903501   0.00004341 1.0
  0.96570869   0.25962799   0.00016249 1.0
  0.96554643   0.26023068   0.00028467 1.0
  0.96549987   0.26040332   0.00031816 1.0
  0.96557196   0.26013597   0.00026554 1.0
  0.96576002   0.25943703   0.00012386 1.0
  0.96606805   0.25828765   0.00010827 1.0
  0.96637509   0.25713627   0.00034155 1.0
  0.96652560   0.25656981   0.00045515 1.0
  0.96651382   0.25661417   0.00044555 1.0
  0.96633864   0.25727325   0.00031282 1.0
  0.96601741   0.25847701   0.00006814 1.0
  0.96573047   0.25954699   0.00014890 1.0
  0.96556524   0.26016090   0.00027334 1.0
  0.96551610   0.26034315   0.00031036 1.0
  0.96558404   0.26009112   0.00025897 1.0
  0.96576125   0.25943245   0.00012501 1.0
  0.96590748   0.25888751   0.00001436 1.0
  0.96598772   0.25858792   0.00004663 1.0
  0.96601899   0.25847108   0.00007059 1.0
  0.96600324   0.25852996   0.00005861 1.0
  0.96593832   0.25877242   0.00000955 1.0
  0.96587688   0.25900163   0.00003643 1.0
  0.96585305   0.25909048   0.00005513 1.0
  0.96584006   0.25913890   0.00006453 1.0
  0.96583179   0.25916974   0.00007049 1.0
  0.96582562   0.25919273   0.00007535 1.0
  0.96582562   0.25919273   0.00007535 1.0
  0.96589932   0.25891791   0.00010074 1.0
  0.96590506   0.25889651   0.00008317 1.0
  0.96591179   0.25887143   0.00005474 1.0
  0.96592341   0.25882807   0.00000960 1.0
  0.96594478   0.25874828   0.00007394 1.0
  0.96599617   0.25855621   0.00027831 1.0
  0.96604870   0.25835959   0.00048590 1.0
  0.96606390   0.25830263   0.00054421 1.0
  0.96604046   0.25839046   0.00045328 1.0
  0.96597926   0.25861947   0.00021278 1.0
  0.96587925   0.25899275   0.00018218 1.0
  0.96577847   0.25936773   0.00057857 1.0
  0.96572937   0.25954999   0.00077201 1.0
  0.96573285   0.25953707   0.00075729 1.0
  0.96579040   0.25932341   0.00053094 1.0
  0.96589624   0.25892942   0.00011722 1.0
  0.96598957   0.25858091   0.00024858 1.0
  0.96604262   0.25838238   0.00046136 1.0
  0.96605928   0.25831995   0.00052314 1.0
  0.96603715   0.25840286   0.00043682 1.0
  0.96597882   0.25862109   0.00021047 1.0
  0.96593207   0.25879573   0.00002339 1.0
  0.96590596   0.25889317   0.00007968 1.0
  0.96589482   0.25893469   0.00011953 1.0
  0.96590064   0.25891299   0.00009874 1.0
  0.96592191   0.25883367   0.00001666 1.0
  0.96594188   0.25875913   0.00006286 1.0
  0.96594925   0.25873161   0.00009314 1.0
  0.96595403   0.25871372   0.00011041 1.0
  0.96595659   0.25870419   0.00012106 1.0
  0.96595757   0.25870053   0.00012634 1.0
  0.96595757   0.25870053   0.00012634 1.0
  0.96592503   0.25882193   0.00021222 1.0
  0.96592503   0.25882194   0.00017357 1.0
  0.96592577   0.25881923   0.00011442 1.0
  0.96592573   0.25881941   0.00001985 1.0
  0.96592613   0.25881788   0.00015462 1.0
  0.96592744   0.25881238   0.00058190 1.0
  0.96592792   0.25880922   0.00101554 1.0
  0.96592763   0.25880981   0.00113825 1.0
  0.96592832   0.25880801   0.00094797 1.0
  0.96592688   0.25881472   0.00044490 1.0
  0.96592412   0.25882512   0.00038269 1.0
  0.96592194   0.25883072   0.00121056 1.0
  0.96591976   0.25883665   0.00161664 1.0
  0.96591981   0.25883666   0.00158372 1.0
  0.96592248   0.25882913   0.00111254 1.0
  0.96592474   0.25882297   0.00024512 1.0
  0.96592804   0.25881024   0.00052271 1.0
  0.96592841   0.25880762   0.00096530 1.0
  0.96592856   0.25880651   0.00109696 1.0
  0.96592831   0.25880817   0.00091507 1.0
  0.96592703   0.25881418   0.00044072 1.0
  0.96592597   0.25881851   0.00004966 1.0
  0.96592552   0.25882013   0.00016572 1.0
  0.96592514   0.25882147   0.00025060 1.0
  0.96592515   0.25882147   0.00020628 1.0
  0.96592578   0.25881920   0.00003447 1.0
  0.96592627   0.25881737   0.00013018 1.0
  0.96592618   0.25881763   0.00019566 1.0
  0.96592646   0.25881658   0.00023074 1.0
  0.96592633   0.25881706   0.00025208 1.0
  0.96592646   0.25881653   0.00026672 1.0
  0.96592646   0.25881653   0.00026672 1.0
  0.96591013   0.25887763   0.00003055 1.0
  0.96591280   0.25886766   0.00002601 1.0
  0.96591723   0.25885112   0.00001722 1.0
  0.96592429   0.25882476   0.00000305 1.0
  0.96593753   0.25877538   0.00002336 1.0
  0.96596896   0.25865798   0.00008588 1.0
  0.96600102   0.25853820   0.00015071 1.0
  0.96601015   0.25850410   0.00016861 1.0
  0.96599625   0.25855605   0.00014060 1.0
  0.96595889   0.25869560   0.00006583 1.0
  0.96589707   0.25892634   0.00005688 1.0
  0.96583660   0.25915175   0.00017958 1.0
  0.96580530   0.25926834   0.00024050 1.0
  0.96580871   0.25925564   0.00023501 1.0
  0.96584340   0.25912643   0.00016485 1.0
  0.96590769   0.25888671   0.00003667 1.0
  0.96596437   0.25867513   0.00007795 1.0
  0.96599695   0.25855344   0.00014407 1.0
  0.96600712   0.25851541   0.00016254 1.0
  0.96599349   0.25856637   0.00013656 1.0
  0.96595889   0.25869560   0.00006554 1.0
  0.96592922   0.25880639   0.00000722 1.0
  0.96591373   0.25886419   0.00002454 1.0
  0.96590726   0.25888832   0.00003695 1.0
  0.96591029   0.25887701   0.00003118 1.0
  0.96592302   0.25882954   0.00000460 1.0
  0.96593546   0.25878308   0.00001879 1.0
  0.96594075   0.25876336   0.00002945 1.0
  0.96594280   0.25875569   0.00003421 1.0
  0.96594422   0.25875038   0.00003725 1.0
  0.96594581   0.25874445   0.00003964 1.0
  0.96594581   0.25874445   0.00003964 1.0
  0.96590183   0.25890844   0.00026011 1.0
  0.96590553   0.25889471   0.00021290 1.0
  0.96591237   0.25886923   0.00014085 1.0
  0.96592364   0.25882720   0.00002421 1.0
  0.96594379   0.25875194   0.00019002 1.0
  0.96599324   0.25856634   0.00071459 1.0
  0.96604242   0.25838051   0.00124636 1.0
  0.96605684   0.25832581   0.00139707 1.0
  0.96603516   0.25840802   0.00116407 1.0
  0.96597711   0.25862698   0.00054595 1.0
  0.96588190   0.25898250   0.00047060 1.0
  0.96578421   0.25934271   0.00148686 1.0
  0.96573735   0.25951385   0.00198516 1.0
  0.96574060   0.25950202   0.00194561 1.0
  0.96579585   0.25930005   0.00136590 1.0
  0.96589750   0.25892456   0.00030026 1.0
  0.96598525   0.25859637   0.00064180 1.0
  0.96603663   0.25840243   0.00118660 1.0
  0.96605129   0.25834684   0.00134683 1.0
  0.96603054   0.25842550   0.00112424 1.0
  0.96597680   0.25862818   0.00054191 1.0
  0.96593073   0.25880074   0.00006034 1.0
  0.96590674   0.25889020   0.00020267 1.0
  0.96589699   0.25892644   0.00030805 1.0
  0.96590232   0.25890663   0.00025349 1.0
  0.96592147   0.25883530   0.00004222 1.0
  0.96594111   0.25876194   0.00016016 1.0
  0.96594827   0.25873516   0.00023993 1.0
  0.96595267   0.25871867   0.00028335 1.0
  0.96595516   0.25870935   0.00031020 1.0
  0.96595654   0.25870418   0.00032617 1.0
  0.96595654   0.25870418   0.00032617 1.0
  0.96592923   0.25880630   0.00013336 1.0
  0.96592828   0.25880988   0.00010854 1.0
  0.96592743   0.25881307   0.00007231 1.0
  0.96592604   0.25881825   0.00001221 1.0
  0.96592360   0.25882732   0.00009730 1.0
  0.96591787   0.25884847   0.00036476 1.0
  0.96591125   0.25887265   0.00063762 1.0
  0.96590961   0.25887856   0.00071413 1.0
  0.96591262   0.25886765   0.00059445 1.0
  0.96591954   0.25884236   0.00027933 1.0
  0.96593056   0.25880127   0.00024050 1.0
  0.96594237   0.25875618   0.00075959 1.0
  0.96594749   0.25873618   0.00101439 1.0
  0.96594708   0.25873780   0.00099389 1.0
  0.96594126   0.25876050   0.00069810 1.0
  0.96592928   0.25880612   0.00015359 1.0
  0.96591866   0.25884559   0.00032769 1.0
  0.96591276   0.25886711   0.00060586 1.0
  0.96591035   0.25887587   0.00068843 1.0
  0.96591364   0.25886388   0.00057410 1.0
  0.96591968   0.25884183   0.00027702 1.0
  0.96592510   0.25882175   0.00003046 1.0
  0.96592806   0.25881070   0.00010350 1.0
  0.96592906   0.25880693   0.00015720 1.0
  0.96592911   0.25880678   0.00012992 1.0
  0.96592629   0.25881732   0.00002140 1.0
  0.96592377   0.25882671   0.00008189 1.0
  0.96592320   0.25882883   0.00012247 1.0
  0.96592237   0.25883190   0.00014462 1.0
  0.96592273   0.25883055   0.00015831 1.0
  0.96592215   0.25883272   0.00016763 1.0
  0.96592215   0.25883272   0.00016763 1.0
  0.96589599   0.25893023   0.00026506 1.0
  0.96590117   0.25891097   0.00021772 1.0
  0.96590965   0.25887935   0.00014321 1.0
  0.96592309   0.25882924   0.00002487 1.0
  0.96594753   0.25873794   0.00019412 1.0
  0.96600733   0.25851366   0.00072838 1.0
  0.96606816   0.25828413   0.00127090 1.0
  0.96608473   0.25822134   0.00142507 1.0
  0.96605902   0.25831872   0.00118659 1.0
  0.96598768   0.25858750   0.00055692 1.0
  0.96587174   0.25902036   0.00047839 1.0
  0.96575323   0.25945789   0.00151486 1.0
  0.96569522   0.25967027   0.00202299 1.0
  0.96569964   0.25965414   0.00198142 1.0
  0.96576781   0.25940430   0.00139245 1.0
  0.96589139   0.25894734   0.00030661 1.0
  0.96599968   0.25854245   0.00065306 1.0
  0.96606202   0.25830740   0.00120767 1.0
  0.96607972   0.25824037   0.00137196 1.0
  0.96605470   0.25833505   0.00114416 1.0
  0.96598830   0.25858519   0.00055201 1.0
  0.96593308   0.25879196   0.00006092 1.0
  0.96590200   0.25890787   0.00020701 1.0
  0.96589038   0.25895111   0.00031325 1.0
  0.96589650   0.25892833   0.00025897 1.0
  0.96592133   0.25883581   0.00004279 1.0
  0.96594415   0.25875059   0.00016353 1.0
  0.96595318   0.25871683   0.00024451 1.0
  0.96595825   0.25869787   0.00028830 1.0
  0.96596173   0.25868484   0.00031598 1.0
  0.96596227   0.25868280   0.00033361 1.0
  0.96596227   0.25868280   0.00033361 1.0
  0.96594704   0.25873983   0.00012634 1.0
  0.96594328   0.25875389   0.00010517 1.0
  0.96593750   0.25877546   0.00006889 1.0
  0.96592768   0.25881214   0.00001178 1.0
  0.96591043   0.25887650   0.00009333 1.0
  0.96586691   0.25903858   0.00035040 1.0
  0.96582349   0.25919996   0.00061192 1.0
  0.96581065   0.25924758   0.00068540 1.0
  0.96582972   0.25917680   0.00057122 1.0
  0.96588096   0.25898629   0.00026792 1.0
  0.96596511   0.25867227   0.00023024 1.0
  0.96604769   0.25836279   0.00072914 1.0
  0.96608799   0.25821124   0.00097310 1.0
  0.96608513   0.25822203   0.00095332 1.0
  0.96603789   0.25839959   0.00066981 1.0
  0.96595062   0.25872646   0.00014782 1.0
  0.96587296   0.25901607   0.00031397 1.0
  0.96582755   0.25918488   0.00058146 1.0
  0.96581452   0.25923324   0.00065970 1.0
  0.96583318   0.25916399   0.00055014 1.0
  0.96588103   0.25898602   0.00026561 1.0
  0.96592051   0.25883887   0.00002930 1.0
  0.96594279   0.25875571   0.00009989 1.0
  0.96595127   0.25872404   0.00015071 1.0
  0.96594661   0.25874143   0.00012443 1.0
  0.96592909   0.25880687   0.00002025 1.0
  0.96591272   0.25886796   0.00007839 1.0
  0.96590639   0.25889154   0.00011789 1.0
  0.96590275   0.25890512   0.00013884 1.0
  0.96590011   0.25891495   0.00015237 1.0
  0.96589880   0.25891983   0.00016061 1.0
  0.96589880   0.25891983   0.00016061 1.0
  0.96595990   0.25869184   0.00003262 1.0
  0.96595443   0.25871229   0.00002665 1.0
  0.96594436   0.25874986   0.00001758 1.0
  0.96592911   0.25880679   0.00000316 1.0
  0.96590062   0.25891310   0.00002396 1.0
  0.96583117   0.25917203   0.00008932 1.0
  0.96576059   0.25943487   0.00015547 1.0
  0.96574008   0.25951121   0.00017467 1.0
  0.96577134   0.25939486   0.00014464 1.0
  0.96585342   0.25908911   0.00006828 1.0
  0.96598816   0.25858631   0.00005933 1.0
  0.96612229   0.25808465   0.00018651 1.0
  0.96618817   0.25783784   0.00024887 1.0
  0.96618300   0.25785725   0.00024396 1.0
  0.96610684   0.25814247   0.00017106 1.0
  0.96596568   0.25867028   0.00003710 1.0
  0.96584095   0.25913559   0.00008069 1.0
  0.96576797   0.25940740   0.00014955 1.0
  0.96574738   0.25948404   0.00016991 1.0
  0.96577703   0.25937369   0.00014103 1.0
  0.96585400   0.25908696   0.00006828 1.0
  0.96591777   0.25884911   0.00000780 1.0
  0.96595286   0.25871811   0.00002512 1.0
  0.96596647   0.25866731   0.00003898 1.0
  0.96595962   0.25869291   0.00003161 1.0
  0.96593110   0.25879937   0.00000546 1.0
  0.96590467   0.25889798   0.00001999 1.0
  0.96589417   0.25893716   0.00002988 1.0
  0.96588832   0.25895898   0.00003562 1.0
  0.96588501   0.25897130   0.00003853 1.0
  0.96588155   0.25898422   0.00004129 1.0
  0.96588155   0.25898422   0.00004129 1.0
  0.96587112   0.25902313   0.00005780 1.0
  0.96588118   0.25898562   0.00004785 1.0
  0.96589663   0.25892797   0.00003232 1.0
  0.96592034   0.25883953   0.00000545 1.0
  0.96596581   0.25866976   0.00004287 1.0
  0.96607514   0.25826110   0.00015940 1.0
  0.96618629   0.25784485   0.00028005 1.0
  0.96621763   0.25772736   0.00031325 1.0
  0.96616867   0.25791090   0.00026099 1.0
  0.96603983   0.25839318   0.00012184 1.0
  0.96582804   0.25918369   0.00010509 1.0
  0.96561402   0.25997971   0.00033490 1.0
  0.96550885   0.26036985   0.00044750 1.0
  0.96551780   0.26033668   0.00043768 1.0
  0.96563953   0.25988500   0.00030632 1.0
  0.96586285   0.25905394   0.00006698 1.0
  0.96605951   0.25831959   0.00014464 1.0
  0.96617360   0.25789243   0.00026792 1.0
  0.96620712   0.25776679   0.00030401 1.0
  0.96616007   0.25794312   0.00025464 1.0
  0.96603904   0.25839614   0.00012212 1.0
  0.96593813   0.25877311   0.00001415 1.0
  0.96588371   0.25897617   0.00004648 1.0
  0.96586148   0.25905906   0.00006929 1.0
  0.96587257   0.25901769   0.00005630 1.0
  0.96591691   0.25885231   0.00001063 1.0
  0.96595934   0.25869393   0.00003685 1.0
  0.96597627   0.25863069   0.00005322 1.0
  0.96598467   0.25859932   0.00006370 1.0
  0.96599115   0.25857512   0.00007033 1.0
  0.96599307   0.25856795   0.00007184 1.0
  0.96599307   0.25856795   0.00007184 1.0
  0.96595237   0.25871978   0.00029438 1.0
  0.96594828   0.25873514   0.00024148 1.0
  0.96594046   0.25876438   0.00015984 1.0
  0.96592856   0.25880883   0.00002759 1.0
  0.96590567   0.25889415   0.00021555 1.0
  0.96585078   0.25909769   0.00080980 1.0
  0.96579424   0.25930579   0.00141338 1.0
  0.96577800   0.25936529   0.00158429 1.0
  0.96580246   0.25927567   0.00131941 1.0
  0.96586849   0.25903219   0.00061842 1.0
  0.96597452   0.25863668   0.00053296 1.0
  0.96607926   0.25824025   0.00168593 1.0
  0.96613041   0.25804451   0.00225064 1.0
  0.96612662   0.25805909   0.00220574 1.0
  0.96606719   0.25828626   0.00154850 1.0
  0.96595735   0.25870113   0.00034097 1.0
  0.96585913   0.25906680   0.00072798 1.0
  0.96580112   0.25928050   0.00134511 1.0
  0.96578449   0.25934146   0.00152741 1.0
  0.96580776   0.25925613   0.00127523 1.0
  0.96586950   0.25902842   0.00061423 1.0
  0.96591928   0.25884345   0.00006871 1.0
  0.96594757   0.25873777   0.00023082 1.0
  0.96595750   0.25870059   0.00034934 1.0
  0.96595232   0.25871999   0.00028770 1.0
  0.96593049   0.25880163   0.00004753 1.0
  0.96590881   0.25888247   0.00018160 1.0
  0.96590071   0.25891261   0.00027200 1.0
  0.96589615   0.25892956   0.00032110 1.0
  0.96589332   0.25894011   0.00035131 1.0
  0.96589183   0.25894563   0.00037117 1.0
  0.96589183   0.25894563   0.00037117 1.0
  0.96597647   0.25862998   0.00002931 1.0
  0.96596859   0.25865938   0.00002457 1.0
  0.96595373   0.25871489   0.00001616 1.0
  0.96593065   0.25880104   0.00000316 1.0
  0.96588804   0.25896003   0.00002192 1.0
  0.96578376   0.25934865   0.00008214 1.0
  0.96567711   0.25974543   0.00014363 1.0
  0.96564743   0.25985577   0.00016023 1.0
  0.96569386   0.25968318   0.00013338 1.0
  0.96581697   0.25922494   0.00006279 1.0
  0.96601943   0.25846946   0.00005500 1.0
  0.96622038   0.25771720   0.00017236 1.0
  0.96631968   0.25734457   0.00022967 1.0
  0.96631127   0.25737613   0.00022476 1.0
  0.96619747   0.25780306   0.00015792 1.0
  0.96598538   0.25859670   0.00003407 1.0
  0.96579824   0.25929474   0.00007478 1.0
  0.96568918   0.25970058   0.00013873 1.0
  0.96565761   0.25981791   0.00015662 1.0
  0.96570216   0.25965233   0.00013107 1.0
  0.96581784   0.25922171   0.00006337 1.0
  0.96591409   0.25886285   0.00000722 1.0
  0.96596604   0.25866893   0.00002339 1.0
  0.96598729   0.25858954   0.00003594 1.0
  0.96597596   0.25863187   0.00002930 1.0
  0.96593437   0.25878716   0.00000474 1.0
  0.96589416   0.25893720   0.00001794 1.0
  0.96587793   0.25899774   0.00002803 1.0
  0.96586978   0.25902813   0.00003232 1.0
  0.96586420   0.25904894   0.00003581 1.0
  0.96585964   0.25906594   0.00003798 1.0
  0.96585964   0.25906594   0.00003798 1.0
  0.96587318   0.25901542   0.00010900 1.0
  0.96588262   0.25898023   0.00009184 1.0
  0.96589758   0.25892445   0.00005969 1.0
  0.96592079   0.25883784   0.00001091 1.0
  0.96596423   0.25867567   0.00008092 1.0
  0.96607022   0.25827939   0.00030445 1.0
  0.96617709   0.25787892   0.00053123 1.0
  0.96620726   0.25776575   0.00059445 1.0
  0.96616065   0.25794060   0.00049514 1.0
  0.96603559   0.25840895   0.00023212 1.0
  0.96583135   0.25917130   0.00020094 1.0
  0.96562465   0.25993967   0.00063401 1.0
  0.96552398   0.26031276   0.00084563 1.0
  0.96553154   0.26028477   0.00083004 1.0
  0.96564945   0.25984765   0.00058146 1.0
  0.96586473   0.25904694   0.00012790 1.0
  0.96605501   0.25833629   0.00027399 1.0
  0.96616484   0.25792489   0.00050697 1.0
  0.96619657   0.25780586   0.00057540 1.0
  0.96615189   0.25797343   0.00047984 1.0
  0.96603512   0.25841069   0.00023183 1.0
  0.96593777   0.25877445   0.00002627 1.0
  0.96588508   0.25897105   0.00008719 1.0
  0.96586342   0.25905179   0.00013165 1.0
  0.96587485   0.25900919   0.00010769 1.0
  0.96591741   0.25885044   0.00001781 1.0
  0.96595826   0.25869798   0.00006792 1.0
  0.96597414   0.25863864   0.00010208 1.0
  0.96598275   0.25860647   0.00012032 1.0
  0.96598853   0.25858488   0.00013166 1.0
  0.96599225   0.25857098   0.00014038 1.0
  0.96599225   0.25857098   0.00014038 1.0
  0.96596730   0.25866409   0.00026672 1.0
  0.96596004   0.25869122   0.00021884 1.0
  0.96594851   0.25873432   0.00014474 1.0
  0.96593000   0.25880348   0.00002487 1.0
  0.96589515   0.25893344   0.00019556 1.0
  0.96581053   0.25924791   0.00073369 1.0
  0.96572435   0.25956663   0.00128057 1.0
  0.96569955   0.25965807   0.00143474 1.0
  0.96573750   0.25951811   0.00119555 1.0
  0.96583834   0.25914471   0.00056110 1.0
  0.96600150   0.25853601   0.00048215 1.0
  0.96616351   0.25792585   0.00152512 1.0
  0.96624294   0.25762460   0.00203714 1.0
  0.96623713   0.25764672   0.00199642 1.0
  0.96614418   0.25799895   0.00140184 1.0
  0.96597404   0.25863886   0.00030921 1.0
  0.96582209   0.25920507   0.00065725 1.0
  0.96573335   0.25953345   0.00121648 1.0
  0.96570689   0.25963108   0.00138105 1.0
  0.96574400   0.25949410   0.00115252 1.0
  0.96583758   0.25914756   0.00055562 1.0
  0.96591618   0.25885503   0.00006164 1.0
  0.96595866   0.25869640   0.00020874 1.0
  0.96597526   0.25863428   0.00031585 1.0
  0.96596684   0.25866581   0.00026013 1.0
  0.96593221   0.25879521   0.00004351 1.0
  0.96590026   0.25891438   0.00016474 1.0
  0.96588685   0.25896435   0.00024670 1.0
  0.96588022   0.25898903   0.00029031 1.0
  0.96587651   0.25900282   0.00031855 1.0
  0.96587256   0.25901753   0.00033525 1.0
  0.96587256   0.25901753   0.00033525 1.0
  0.96593915   0.25876933   0.00002931 1.0
  0.96593732   0.25877615   0.00002457 1.0
  0.96593275   0.25879319   0.00001616 1.0
  0.96592726   0.25881371   0.00000316 1.0
  0.96591587   0.25885621   0.00002192 1.0
  0.96588877   0.25895728   0.00008214 1.0
  0.96586097   0.25906094   0.00014349 1.0
  0.96585281   0.25909134   0.00016038 1.0
  0.96586501   0.25904586   0.00013396 1.0
  0.96589754   0.25892457   0.00006222 1.0
  0.96595048   0.25872700   0.00005384 1.0
  0.96600275   0.25853173   0.00017164 1.0
  0.96602881   0.25843428   0.00022851 1.0
  0.96602694   0.25844129   0.00022361 1.0
  0.96599713   0.25855274   0.00015735 1.0
  0.96594102   0.25876233   0.00003407 1.0