# vtk DataFile Version 3.0
trk2vtk output
ASCII
DATASET POLYDATA
POINTS 3197 float
  5.21901035  14.80106068   1.00090528
  5.22398233  14.52541924   1.00092256
  5.28149986  13.81906986   1.00095868
  5.46240854  12.87189770   1.00099123
  5.78814697  11.88118935   1.00099719
  6.19495010  11.02863312   1.00095427
  6.61328602  10.35576725   1.00081944
  7.09486198   9.73165417   1.00058424
  7.63708973   9.15927029   1.00032151
  8.23468494   8.64476776   1.00010228
  8.88167572   8.19380665   1.00000000
  9.57144928   7.81147003   1.00008941
 10.29666328   7.50182056   1.00037146
 11.04946327   7.26764011   1.00074732
 11.82189751   7.11081982   1.00111520
 12.60601616   7.03240967   1.00137353
 13.39396191   7.03270054   1.00142992
 14.17794609   7.11179924   1.00130689
 14.95009995   7.26931000   1.00108111
 15.70252228   7.50401783   1.00082481
 16.42736435   7.81388950   1.00061095
 17.11693764   8.19603443   1.00050771
 17.76407051   8.64637947   1.00049591
 18.36215210   9.16007328   1.00053442
 18.90510368   9.73168945   1.00059271
 19.38746643  10.35524940   1.00064111
 19.80642319  11.02787685   1.00064898
 20.21368599  11.88045120   1.00061297
 20.53977394  12.87134171   1.00055265
 20.72090149  13.81876564   1.00048745
 20.77852249  14.52533054   1.00043511
 20.78351784  14.80106068   1.00041342
  5.35562420  14.80106068   2.31114149
  5.36039400  14.53025436   2.31117082
  5.41666222  13.83626747   2.31123257
  5.59419060  12.90562916   2.31128788
  5.91419554  11.93222713   2.31129813
  6.31414032  11.09471226   2.31122518
  6.72589684  10.43415070   2.31099391
  7.20017719   9.82207108   2.31059289
  7.73395443   9.26117706   2.31014347
  8.32165813   8.75713348   2.30976892
  8.95720482   8.31498814   2.30959320
  9.63406754   7.93912983   2.30974388
 10.34538364   7.63336945   2.31022143
 11.08398914   7.40097523   2.31085920
 11.84238052   7.24449635   2.31148434
 12.61278152   7.16572094   2.31192303
 13.38722801   7.16562653   2.31201982
 14.15767479   7.24417686   2.31181431
 14.91615868   7.40043068   2.31143355
 15.65488815   7.63265419   2.31100130
 16.36632729   7.93834209   2.31064081
 17.04325485   8.31426239   2.31046700
 17.67875671   8.75660801   2.31044769
 18.26630211   9.26091576   2.31051326
 18.79984474   9.82205963   2.31061220
 19.27387047  10.43431950   2.31069374
 19.68542290  11.09495831   2.31070757
 20.08521843  11.93246746   2.31064534
 20.40510941  12.90581036   2.31054354
 20.58256721  13.83636761   2.31043196
 20.63880157  14.53028393   2.31034207
 20.64356422  14.80106068   2.31030536
  5.72298670  14.80106068   1.99712002
  5.72755384  14.54326916   1.99718130
  5.78117323  13.88264275   1.99731016
  5.95021772  12.99674892   1.99742579
  6.25484753  12.07014561   1.99744749
  6.63550663  11.27286243   1.99729443
  7.02729797  10.64393044   1.99681139
  7.47851849  10.06101704   1.99597263
  7.98639488   9.52674389   1.99503279
  8.54571724   9.04659271   1.99424994
  9.15074253   8.62548733   1.99388242
  9.79526138   8.26774502   1.99419856
 10.47266388   7.97703648   1.99519825
 11.17599964   7.75634766   1.99653327
 11.89805698   7.60794640   1.99784112
 12.63142490   7.53335953   1.99875975
 13.36857700   7.53335762   1.99896228
 14.10194588   7.60793972   1.99853063
 14.82400513   7.75633621   1.99773347
 15.52734566   7.97702217   1.99682760
 16.20475197   8.26772881   1.99607193
 16.84927368   8.62547302   1.99570799
 17.45429802   9.04658222   1.99566698
 18.01361656   9.52673912   1.99580371
 18.52148819  10.06101704   1.99601066
 18.97270393  10.64393616   1.99618113
 19.36449051  11.27286816   1.99620974
 19.74514771  12.07015133   1.99608088
 20.04977417  12.99675369   1.99586701
 20.21881676  13.88264465   1.99563384
 20.27243614  14.54327011   1.99544668
 20.27700424  14.80106068   1.99536967
  4.91569901  14.80106068   2.18529105
  4.92075586  14.51467037   2.18528223
  4.98028851  13.78075123   2.18526292
  5.16805649  12.79656506   2.18524575
  5.50647879  11.76715469   2.18524218
  5.92940807  10.88143349   2.18526554
  6.36477470  10.18280411   2.18533659
  6.86622238   9.53537941   2.18546104
  7.43059731   8.94204807   2.18560028
  8.05205536   8.40883827   2.18571639
  8.72418880   7.94114780   2.18577075
  9.44009209   7.54368591   2.18572378
 10.19247437   7.22050285   2.18557572
 10.97369480   6.97499275   2.18537712
 11.77578545   6.80977678   2.18518305
 12.59051704   6.72666311   2.18504667
 13.40949440   6.72660494   2.18501663
 14.22425365   6.80958176   2.18508077
 15.02639961   6.97465992   2.18519974
 15.80769730   7.22006416   2.18533421
 16.56015205   7.54320431   2.18544674
 17.27609634   7.94070435   2.18550110
 17.94820213   8.40851688   2.18550706
 18.56956291   8.94188690   2.18548679
 19.13379669   9.53537273   2.18545604
 19.63508606  10.18290710   2.18543053
 20.07032967  10.88158512   2.18542647
 20.49316788  11.76730156   2.18544531
 20.83152008  12.79667664   2.18547726
 21.01924515  13.78081131   2.18551183
 21.07875633  14.51468849   2.18553948
 21.08380890  14.80106068   2.18555093
  4.15686274  14.80106068   2.29444599
  4.16238642  14.48778820   2.29437089
  4.22748995  13.68497276   2.29421306
  4.43286896  12.60839844   2.29407072
  4.80305624  11.48235607   2.29404402
  5.26570559  10.51350212   2.29423213
  5.74199390   9.74932957   2.29482532
  6.29059172   9.04121208   2.29585481
  6.90801954   8.39229012   2.29700851
  7.58785534   7.80913162   2.29796958
  8.32307148   7.29760742   2.29842043
  9.10611439   6.86282349   2.29803181
  9.92903519   6.50919485   2.29680395
 10.78351307   6.24047709   2.29516459
 11.66085434   6.05958223   2.29355812
 12.55206299   5.96854353   2.29242992
 13.44793510   5.96845150   2.29218197
 14.33918762   6.05927420   2.29271197
 15.21661949   6.23995256   2.29369187
 16.07122040   6.50850582   2.29480410
 16.89425850   6.86206436   2.29573274
 17.67736626   7.29690933   2.29618025
 18.41254234   7.80862522   2.29623008
 19.09222794   8.39203548   2.29606271
 19.70943069   9.04119873   2.29580832
 20.25778580   9.74948978   2.29559875
 20.73388100  10.51373672   2.29556370
 21.19638634  11.48258495   2.29572225
 21.56646538  12.60857296   2.29598451
 21.77177620  13.68506908   2.29627109
 21.83684921  14.48781586   2.29650116
 21.84236336  14.80106068   2.29659557
  5.46123600  14.80106068   1.95258641
  5.46597147  14.53399754   1.95262492
  5.52152777  13.84960938   1.95270550
  5.69665909  12.93185520   1.95277858
  6.01224709  11.97192574   1.95279193
  6.40658808  11.14596176   1.95269561
  6.81244612  10.49439049   1.95239282
  7.27985668   9.89047337   1.95186627
  7.80596542   9.33693409   1.95127654
  8.38538551   8.83946228   1.95078564
  9.01217461   8.40317917   1.95055497
  9.67990589   8.03257751   1.95075357
 10.38171387   7.73146534   1.95138085
 11.11038399   7.50291824   1.95221841
 11.85842991   7.34926224   1.95303929
 12.61817551   7.27205276   1.95361567
 13.38183022   7.27206326   1.95374262
 14.14157009   7.34929943   1.95347202
 14.88960648   7.50298119   1.95297170
 15.61826324   7.73154831   1.95240319
 16.32005692   8.03266907   1.95192897
 16.98777962   8.40326309   1.95170033
 17.61457634   8.83952332   1.95167518
 18.19401360   9.33696365   1.95176065
 18.72014999   9.89047432   1.95189047
 19.18758965  10.49437237   1.95199764
 19.59347153  11.14593315   1.95201552
 19.98782921  11.97189713   1.95193446
 20.30343056  12.93183422   1.95180058
 20.47857094  13.84959888   1.95165443
 20.53413010  14.53399467   1.95153689
 20.53886604  14.80106068   1.95148849
  5.89913130  14.80106068   2.36426973
  5.90355539  14.54950809   2.36434627
  5.95580864  13.90485954   2.36450768
  6.12070370  13.04038143   2.36465240
  6.41795683  12.13618088   2.36467957
  6.78948259  11.35821629   2.36448741
  7.17200756  10.74464989   2.36388302
  7.61263561  10.17615128   2.36283350
  8.10852337   9.65521908   2.36165643
  8.65447617   9.18709469   2.36067653
  9.24483204   8.77643776   2.36021662
  9.87352180   8.42728996   2.36061192
 10.53419590   8.14317894   2.36186290
 11.22022915   7.92717171   2.36353326
 11.92467022   7.78167725   2.36516953
 12.64029980   7.70840168   2.36631942
 13.35970116   7.70829105   2.36657286
 14.07538414   7.78130531   2.36603332
 14.77993298   7.92653847   2.36503625
 15.46611214   8.14234638   2.36390328
 16.12692833   8.42637348   2.36295843
 16.75569725   8.77559566   2.36250257
 17.34600067   9.18648529   2.36245203
 17.89177132   9.65491581   2.36262298
 18.38738632  10.17613792   2.36288190
 18.82771873  10.74484634   2.36309576
 19.21000862  11.35850430   2.36313128
 19.58136177  12.13646126   2.36296916
 19.87848091  13.04059219   2.36270213
 20.04329300  13.90497589   2.36241055
 20.09550858  14.54954243   2.36217594
 20.09992218  14.80106068   2.36207962
  4.59742880  14.80106068   1.72062695
  4.60272694  14.50339699   1.72059047
  4.66469049  13.74059772   1.72051239
  4.85992527  12.71770287   1.72044277
  5.21167564  11.64779758   1.72042990
  5.65115213  10.72718048   1.72052228
  6.10338020  10.00086594   1.72081316
  6.62414408   9.32756233   1.72131848
  7.21034908   8.71034431   1.72188449
  7.85605431   8.15562344   1.72235620
  8.55467796   7.66919327   1.72257745
  9.29905987   7.25616932   1.72238731
 10.08148670   6.92082691   1.72178519
 10.89382076   6.66650057   1.72098160
 11.72766304   6.49566174   1.72019434
 12.57445145   6.40991116   1.71964109
 13.42554951   6.40998936   1.71951914
 14.27230167   6.49592638   1.71977842
 15.10606766   6.66695166   1.72025847
 15.91830063   6.92141962   1.72080326
 16.70062637   7.25682163   1.72125769
 17.44495392   7.66979313   1.72147703
 18.14361763   8.15605736   1.72150123
 18.78945351   8.71056080   1.72141874
 19.37585449   9.32756996   1.72129428
 19.89683151  10.00072575   1.72119153
 20.34922791  10.72697544   1.72117472
 20.78882790  11.64759731   1.72125232
 21.14067268  12.71755123   1.72138119
 21.33596611  13.74051571   1.72152150
[...]
POINT_DATA 3197
COLOR_SCALARS tangents 4
  0.01803492   0.99983736   0.00006270 1.0
  0.08116066   0.99670103   0.00005097 1.0
  0.18760737   0.98224410   0.00003375 1.0
  0.31234366   0.94996918   0.00000572 1.0
  0.43064448   0.90252165   0.00004543 1.0
  0.52799596   0.84924686   0.00017017 1.0
  0.61089671   0.79171025   0.00029836 1.0
  0.68772411   0.72597206   0.00033324 1.0
  0.75782731   0.65245513   0.00027801 1.0
  0.82038142   0.57181668   0.00012969 1.0
  0.87462568   0.48479884   0.00011337 1.0
  0.91967516   0.39267985   0.00035768 1.0
  0.95486530   0.29703877   0.00047676 1.0
  0.98000711   0.19896193   0.00046674 1.0
  0.99503735   0.09950156   0.00032781 1.0
  0.99999993   0.00036915   0.00007156 1.0
  0.99494880   0.10038360   0.00015613 1.0
  0.97982183   0.19987270   0.00028651 1.0
  0.95463301   0.29778468   0.00032518 1.0
  0.91950055   0.39308863   0.00027129 1.0
  0.87466906   0.48472055   0.00013095 1.0
  0.82080669   0.57120607   0.00001497 1.0
  0.75859661   0.65156057   0.00004884 1.0
  0.68869360   0.72505249   0.00007394 1.0
  0.61186118   0.79096516   0.00006139 1.0
  0.52869575   0.84881141   0.00000993 1.0
  0.43103326   0.90233604   0.00003810 1.0
  0.31259420   0.94988676   0.00005782 1.0
  0.18777819   0.98221146   0.00006760 1.0
  0.08128106   0.99669122   0.00007382 1.0
  0.01811382   0.99983593   0.00007867 1.0
  0.01811382   0.99983593   0.00007867 1.0
  0.01761060   0.99984492   0.00010827 1.0
  0.08081445   0.99672916   0.00008869 1.0
  0.18738094   0.98228732   0.00005838 1.0
  0.31230554   0.94998171   0.00001001 1.0
  0.43092419   0.90238813   0.00007861 1.0
  0.52898744   0.84862960   0.00029711 1.0
  0.61250595   0.79046581   0.00051789 1.0
  0.68937901   0.72440061   0.00058043 1.0
  0.75906659   0.65101281   0.00048377 1.0
  0.82088949   0.57108703   0.00022696 1.0
  0.87425404   0.48546867   0.00019462 1.0
  0.91871848   0.39491263   0.00061680 1.0
  0.95389691   0.30013333   0.00082367 1.0
  0.97937005   0.20207341   0.00080728 1.0
  0.99481270   0.10172206   0.00056648 1.0
  0.99999998   0.00012191   0.00012499 1.0
  0.99484280   0.10142847   0.00026537 1.0
  0.97943259   0.20177104   0.00049167 1.0
  0.95397458   0.29988695   0.00055820 1.0
  0.91877728   0.39477601   0.00046555 1.0
  0.87423980   0.48549431   0.00022447 1.0
  0.82074935   0.57128846   0.00002494 1.0
  0.75881137   0.65131045   0.00008468 1.0
  0.68905891   0.72470532   0.00012778 1.0
  0.61218780   0.79071239   0.00010530 1.0
  0.52875405   0.84877509   0.00001777 1.0
  0.43079563   0.90244951   0.00006705 1.0
  0.31222227   0.95000908   0.00009936 1.0
  0.18732480   0.98229802   0.00011778 1.0
  0.08077431   0.99673241   0.00012911 1.0
  0.01758612   0.99984534   0.00013558 1.0
  0.01758612   0.99984534   0.00013558 1.0
  0.01771365   0.99984307   0.00023765 1.0
  0.08089843   0.99672233   0.00019443 1.0
  0.18743610   0.98227679   0.00012821 1.0
  0.31231469   0.94997870   0.00002224 1.0
  0.43085642   0.90242048   0.00017325 1.0
  0.52874522   0.84878034   0.00065189 1.0
  0.61211573   0.79076737   0.00113784 1.0
  0.68897484   0.72478414   0.00127498 1.0
  0.75876528   0.65136328   0.00106199 1.0
  0.82076629   0.57126390   0.00049857 1.0
  0.87434356   0.48530727   0.00042887 1.0
  0.91895095   0.39436951   0.00135616 1.0
  0.95413157   0.29938215   0.00181107 1.0
  0.97952447   0.20131734   0.00177419 1.0
  0.99486710   0.10118253   0.00124618 1.0
  0.99999996   0.00000259   0.00027476 1.0
  0.99486836   0.10117606   0.00058557 1.0
  0.97952682   0.20131082   0.00108140 1.0
  0.95413410   0.29937703   0.00122888 1.0
  0.91895306   0.39436561   0.00102512 1.0
  0.87434335   0.48530759   0.00049372 1.0
  0.82076355   0.57126806   0.00005563 1.0
  0.75875967   0.65137066   0.00018549 1.0
  0.68896874   0.72479100   0.00028074 1.0
  0.61210831   0.79077390   0.00023125 1.0
  0.52874070   0.84878341   0.00003861 1.0
  0.43085466   0.90242132   0.00014586 1.0
  0.31231188   0.94997960   0.00021926 1.0
  0.18743464   0.98227704   0.00025854 1.0
  0.08089854   0.99672230   0.00028238 1.0
  0.01771742   0.99984299   0.00029868 1.0
  0.01771742   0.99984299   0.00029868 1.0
  0.01765447   0.99984415   0.00003080 1.0
  0.08085052   0.99672624   0.00002623 1.0
  0.18740484   0.98228276   0.00001713 1.0
  0.31230943   0.94998043   0.00000330 1.0
  0.43089447   0.90240232   0.00002381 1.0
  0.52888317   0.84869463   0.00008631 1.0
  0.61233783   0.79059621   0.00015198 1.0
  0.68920515   0.72456624   0.00017003 1.0
  0.75893580   0.65116544   0.00014180 1.0
  0.82083685   0.57116273   0.00006639 1.0
  0.87429316   0.48539826   0.00005736 1.0
  0.91882037   0.39467593   0.00018081 1.0
  0.95399939   0.29980845   0.00024253 1.0
  0.97943780   0.20174623   0.00023698 1.0
  0.99483687   0.10148685   0.00016652 1.0
  1.00000000   0.00007103   0.00003668 1.0
  0.99485408   0.10131806   0.00007831 1.0
  0.97947380   0.20157146   0.00014527 1.0
  0.95404484   0.29966383   0.00016420 1.0
  0.91885317   0.39459960   0.00013742 1.0
  0.87428518   0.48541262   0.00006638 1.0
  0.82075594   0.57127899   0.00000728 1.0
  0.75878873   0.65133683   0.00002475 1.0
  0.68902044   0.72474191   0.00003756 1.0
  0.61215215   0.79074000   0.00003115 1.0
  0.52874900   0.84877824   0.00000492 1.0
  0.43082079   0.90243750   0.00001919 1.0
  0.31226071   0.94999645   0.00002948 1.0
  0.18737297   0.98228884   0.00003451 1.0
  0.08082616   0.99672821   0.00003756 1.0
  0.01764061   0.99984439   0.00003996 1.0
  0.01764061   0.99984439   0.00003996 1.0
  0.01762946   0.99984456   0.00023970 1.0
  0.08082868   0.99672799   0.00019596 1.0
  0.18739141   0.98228532   0.00012987 1.0
  0.31230705   0.94998121   0.00002253 1.0
  0.43091298   0.90239347   0.00017521 1.0
  0.52894464   0.84865608   0.00065877 1.0
  0.61243648   0.79051897   0.00114929 1.0
  0.68930731   0.72446792   0.00128802 1.0
  0.75901222   0.65107549   0.00107299 1.0
  0.82086872   0.57111670   0.00050337 1.0
  0.87427088   0.48543819   0.00043390 1.0
  0.91876040   0.39481319   0.00137086 1.0
  0.95393859   0.29999635   0.00183019 1.0
  0.97939683   0.20193721   0.00179333 1.0
  0.99482218   0.10162303   0.00125936 1.0
  0.99999996   0.00010273   0.00027678 1.0
  0.99484765   0.10137951   0.00059161 1.0
  0.97944970   0.20168560   0.00109383 1.0
  0.95400435   0.29979020   0.00124159 1.0
  0.91880956   0.39469979   0.00103670 1.0
  0.87425900   0.48545953   0.00049960 1.0
  0.82075390   0.57128193   0.00005563 1.0
  0.75880262   0.65132062   0.00018685 1.0
  0.68904142   0.72472191   0.00028400 1.0
  0.61217369   0.79072329   0.00023396 1.0
  0.52875318   0.84877563   0.00003892 1.0
  0.43080583   0.90244463   0.00014768 1.0
  0.31223823   0.95000381   0.00022127 1.0
  0.18734451   0.98229424   0.00026150 1.0
  0.08079790   0.99673046   0.00028567 1.0
  0.01760058   0.99984505   0.00030136 1.0
  0.01760058   0.99984505   0.00030136 1.0
  0.01772886   0.99984282   0.00014416 1.0
  0.08091044   0.99672137   0.00011736 1.0
  0.18744364   0.98227536   0.00007821 1.0
  0.31231638   0.94997814   0.00001321 1.0
  0.43084608   0.90242542   0.00010524 1.0
  0.52871116   0.84880172   0.00039445 1.0
  0.61205991   0.79081110   0.00068950 1.0
  0.68891885   0.72483806   0.00077223 1.0
  0.75872174   0.65141455   0.00064281 1.0
  0.82074804   0.57129027   0.00030205 1.0
  0.87435739   0.48528248   0.00026006 1.0
  0.91898471   0.39429231   0.00082139 1.0
  0.95416659   0.29927398   0.00109676 1.0
  0.97954779   0.20120877   0.00107492 1.0
  0.99487551   0.10110465   0.00075476 1.0
  0.99999999   0.00001374   0.00016625 1.0
  0.99487214   0.10114004   0.00035435 1.0
  0.97954099   0.20124366   0.00065516 1.0
  0.95415785   0.29930294   0.00074445 1.0
  0.91897786   0.39430864   0.00062097 1.0
  0.87435897   0.48527961   0.00029940 1.0
  0.82076539   0.57126542   0.00003294 1.0
  0.75875179   0.65137984   0.00011192 1.0
  0.68895678   0.72480240   0.00016999 1.0
  0.61209596   0.79078348   0.00014033 1.0
  0.52873971   0.84878403   0.00002329 1.0
  0.43086093   0.90241834   0.00008857 1.0
  0.31232607   0.94997495   0.00013248 1.0
  0.18745092   0.98227396   0.00015642 1.0
  0.08091368   0.99672110   0.00017118 1.0
  0.01773046   0.99984279   0.00018120 1.0
  0.01773046   0.99984279   0.00018120 1.0
  0.01758444   0.99984534   0.00030419 1.0
  0.08079197   0.99673095   0.00024957 1.0
  0.18736710   0.98228995   0.00016444 1.0
  0.31230374   0.94998230   0.00002856 1.0
  0.43094164   0.90237977   0.00022290 1.0
  0.52904959   0.84859050   0.00083590 1.0
  0.61260717   0.79038619   0.00145915 1.0
  0.68948060   0.72430230   0.00163660 1.0
  0.75914262   0.65092290   0.00136254 1.0
  0.82092160   0.57104055   0.00063953 1.0
  0.87423051   0.48551078   0.00054969 1.0
  0.91865712   0.39505199   0.00173947 1.0
  0.95383322   0.30032782   0.00232240 1.0
  0.97932733   0.20226916   0.00227477 1.0
  0.99479741   0.10186044   0.00159847 1.0
  0.99999993   0.00015378   0.00035229 1.0
  0.99483591   0.10149355   0.00074999 1.0
  0.97940693   0.20189141   0.00138604 1.0
  0.95393223   0.30001804   0.00157506 1.0
  0.91873088   0.39488207   0.00131363 1.0
  0.87421251   0.48554308   0.00063380 1.0
  0.82074628   0.57129286   0.00007028 1.0
  0.75882559   0.65129385   0.00023768 1.0
  0.68908113   0.72468412   0.00035999 1.0
  0.61220970   0.79069539   0.00029734 1.0
  0.52875875   0.84877216   0.00004914 1.0
  0.43078202   0.90245599   0.00018807 1.0
  0.31219837   0.95001689   0.00028058 1.0
  0.18729586   0.98230349   0.00033136 1.0
  0.08074431   0.99673478   0.00036278 1.0
  0.01754515   0.99984600   0.00038290 1.0
  0.01754515   0.99984600   0.00038290 1.0
  0.01779625   0.99984163   0.00012253 1.0
  0.08096511   0.99671693   0.00010203 1.0
  0.18748059   0.98226831   0.00006685 1.0
  0.31232163   0.94997642   0.00001143 1.0
  0.43080228   0.90244633   0.00009056 1.0
  0.52855378   0.84889975   0.00033996 1.0
  0.61180322   0.79100978   0.00059367 1.0
  0.68865538   0.72508850   0.00066493 1.0
  0.75852507   0.65164362   0.00055413 1.0
  0.82066770   0.57140568   0.00025990 1.0
  0.87441722   0.48517468   0.00022335 1.0
  0.91913773   0.39393570   0.00070733 1.0
  0.95432157   0.29877993   0.00094405 1.0
  0.97964983   0.20071210   0.00092492 1.0
  0.99491152   0.10075036   0.00065003 1.0
  0.99999999   0.00009188   0.00014329 1.0
  0.99488927   0.10097148   0.00030464 1.0
  0.97960339   0.20094000   0.00056402 1.0
  0.95426374   0.29896539   0.00064005 1.0
  0.91909404   0.39403790   0.00053387 1.0
  0.87442832   0.48515466   0.00025768 1.0
  0.82077449   0.57125233   0.00002843 1.0
  0.75871659   0.65142085   0.00009691 1.0
  0.68889905   0.72485728   0.00014621 1.0
  0.61204402   0.79082369   0.00012072 1.0
  0.52872957   0.84879034   0.00001964 1.0
  0.43089905   0.90240013   0.00007607 1.0
  0.31238446   0.94995575   0.00011441 1.0
  0.18752262   0.98226028   0.00013473 1.0
  0.08099663   0.99671436   0.00014765 1.0
  0.01781570   0.99984128   0.00015615 1.0
  0.01781570   0.99984128   0.00015615 1.0
  0.01785387   0.99984061   0.00003377 1.0
  0.08101282   0.99671306   0.00002744 1.0
  0.18751088   0.98226253   0.00001833 1.0
  0.31232734   0.94997454   0.00000328 1.0
  0.43076389   0.90246466   0.00002482 1.0
  0.52841860   0.84898396   0.00009251 1.0
  0.61158452   0.79117908   0.00016101 1.0
  0.68843005   0.72530272   0.00018088 1.0
  0.75835663   0.65183986   0.00014978 1.0
  0.82059869   0.57150484   0.00007070 1.0
  0.87446727   0.48508453   0.00006128 1.0
  0.91926732   0.39363380   0.00019328 1.0
  0.95445347   0.29835969   0.00025773 1.0
  0.97973666   0.20028983   0.00025267 1.0
  0.99494217   0.10044925   0.00017719 1.0
  0.99999999   0.00015910   0.00003843 1.0
  0.99490358   0.10083085   0.00008359 1.0
  0.97965628   0.20068268   0.00015490 1.0
  0.95435248   0.29868264   0.00017597 1.0
  0.91919209   0.39380944   0.00014621 1.0
  0.87448624   0.48505031   0.00007056 1.0
  0.82078165   0.57124206   0.00000807 1.0
  0.75868868   0.65145337   0.00002601 1.0
  0.68884843   0.72490540   0.00004021 1.0
  0.61199979   0.79085792   0.00003289 1.0
  0.52872180   0.84879518   0.00000550 1.0
  0.43093066   0.90238505   0.00002058 1.0
  0.31243451   0.94993930   0.00003096 1.0
  0.18758525   0.98224832   0.00003690 1.0
  0.08106307   0.99670897   0.00004007 1.0
  0.01788903   0.99983998   0.00004231 1.0
  0.01788903   0.99983998   0.00004231 1.0
  0.01750692   0.99984674   0.00005844 1.0
  0.08072968   0.99673603   0.00004771 1.0
  0.18732619   0.98229776   0.00003224 1.0
  0.31229603   0.94998484   0.00000544 1.0
  0.43099311   0.90235522   0.00004300 1.0
  0.52922890   0.84847908   0.00015897 1.0
  0.61289984   0.79016056   0.00027902 1.0
  0.68978216   0.72401690   0.00031274 1.0
  0.75936919   0.65065995   0.00026007 1.0
  0.82101461   0.57090717   0.00012183 1.0
  0.87416303   0.48563256   0.00010513 1.0
  0.91848545   0.39545464   0.00033408 1.0
  0.95365927   0.30088833   0.00044634 1.0
  0.97921353   0.20283163   0.00043648 1.0
  0.99475737   0.10226282   0.00030543 1.0
  0.99999997   0.00024295   0.00006678 1.0
  0.99481704   0.10168106   0.00014451 1.0
  0.97933752   0.20223242   0.00026715 1.0
  0.95381458   0.30039582   0.00030288 1.0
  0.91860117   0.39518580   0.00025425 1.0
  0.87413450   0.48568390   0.00012152 1.0
  0.82073672   0.57130661   0.00001440 1.0
  0.75886383   0.65124933   0.00004665 1.0
  0.68914782   0.72462078   0.00006911 1.0
  0.61226788   0.79065039   0.00005615 1.0
  0.52876861   0.84876602   0.00001060 1.0
  0.43073894   0.90247657   0.00003676 1.0
  0.31213188   0.95003878   0.00005332 1.0
  0.18721299   0.98231934   0.00006331 1.0
  0.08065275   0.99674226   0.00007046 1.0
  0.01744811   0.99984777   0.00007163 1.0
  0.01744811   0.99984777   0.00007163 1.0
  0.01783755   0.99984084   0.00034266 1.0
  0.08100103   0.99671398   0.00028118 1.0
  0.18750242   0.98226412   0.00018617 1.0
  0.31232640   0.94997485   0.00003201 1.0
  0.43077419   0.90245972   0.00025091 1.0
  0.52845572   0.84896034   0.00094298 1.0
  0.61164122   0.79113356   0.00164572 1.0
  0.68848943   0.72524403   0.00184462 1.0
  0.75839994   0.65178768   0.00153611 1.0
  0.82061649   0.57147883   0.00071996 1.0
  0.87445342   0.48510908   0.00062047 1.0
  0.91923079   0.39371423   0.00196284 1.0
  0.95441402   0.29847448   0.00262053 1.0
  0.97970994   0.20040417   0.00256849 1.0
  0.99493238   0.10053013   0.00180330 1.0
  0.99999991   0.00014122   0.00039709 1.0
  0.99489929   0.10086967   0.00084780 1.0
  0.97964071   0.20075266   0.00156642 1.0
  0.95432640   0.29876071   0.00177863 1.0
  0.91916439   0.39387131   0.00148487 1.0
  0.87446963   0.48507975   0.00071518 1.0
  0.82078037   0.57124388   0.00008000 1.0
  0.75869601   0.65144477   0.00026876 1.0
  0.68886379   0.72489069   0.00040675 1.0
  0.61201194   0.79084845   0.00033499 1.0
  0.52872532   0.84879299   0.00005535 1.0
  0.43092233   0.90238899   0.00021148 1.0
  0.31242357   0.94994285   0.00031680 1.0
  0.18756690   0.98225176   0.00037394 1.0
  0.08104670   0.99671022   0.00040900 1.0
  0.01786802   0.99984026   0.00043200 1.0
  0.01786802   0.99984026   0.00043200 1.0
  0.01792089   0.99983941   0.00003032 1.0
  0.08106969   0.99670844   0.00002542 1.0
  0.18754765   0.98225551   0.00001672 1.0
  0.31233323   0.94997261   0.00000327 1.0
  0.43071842   0.90248637   0.00002281 1.0
  0.52825913   0.84908320   0.00008484 1.0
  0.61132171   0.79138217   0.00014859 1.0
  0.68816335   0.72555577   0.00016575 1.0
  0.75815560   0.65207366   0.00013796 1.0
  0.82051535   0.57162449   0.00006495 1.0
  0.87452807   0.48497489   0.00005688 1.0
  0.91942251   0.39327118   0.00017813 1.0
  0.95460972   0.29785940   0.00023759 1.0
  0.97983973   0.19978502   0.00023270 1.0
  0.99497841   0.10008961   0.00016342 1.0
  0.99999997   0.00023842   0.00003526 1.0
  0.99492079   0.10066086   0.00007738 1.0
  0.97971906   0.20037601   0.00014355 1.0
  0.95445885   0.29834255   0.00016205 1.0
  0.91930988   0.39353441   0.00013560 1.0
  0.87455539   0.48492563   0.00006556 1.0
  0.82079091   0.57122874   0.00000747 1.0
  0.75865249   0.65149551   0.00002419 1.0
  0.68879065   0.72496030   0.00003703 1.0
  0.61194710   0.79089870   0.00003032 1.0
  0.52871184   0.84880139   0.00000505 1.0
  0.43096911   0.90236668   0.00001869 1.0
  0.31249611   0.94991904   0.00002889 1.0
  0.18765850   0.98223433   0.00003344 1.0
  0.08114410   0.99670238   0.00003720 1.0
  0.01797861   0.99983837   0.00003885 1.0
  0.01797861   0.99983837   0.00003885 1.0
  0.01751707   0.99984656   0.00010720 1.0
  0.08073941   0.99673524   0.00008968 1.0
  0.18733199   0.98229666   0.00005830 1.0
  0.31229741   0.94998438   0.00001044 1.0
  0.43098535   0.90235892   0.00007880 1.0
  0.52920271   0.84849537   0.00029758 1.0
  0.61285624   0.79019425   0.00051852 1.0
  0.68973773   0.72405906   0.00058089 1.0
  0.75933566   0.65069895   0.00048365 1.0
  0.82100112   0.57092653   0.00022675 1.0
  0.87417328   0.48561409   0.00019629 1.0
  0.91851084   0.39539532   0.00061929 1.0
  0.95368565   0.30080391   0.00082618 1.0
  0.97923073   0.20274744   0.00081055 1.0
  0.99476342   0.10220282   0.00056745 1.0
  0.99999997   0.00023001   0.00012515 1.0
  0.99481989   0.10165291   0.00026750 1.0
  0.97934807   0.20218089   0.00049530 1.0
  0.95383248   0.30033863   0.00056188 1.0
  0.91862059   0.39514048   0.00046832 1.0
  0.87414741   0.48566063   0.00022670 1.0
  0.82073716   0.57130597   0.00002566 1.0
  0.75885917   0.65125475   0.00008544 1.0
  0.68913797   0.72463015   0.00012830 1.0
  0.61225794   0.79065808   0.00010517 1.0
  0.52876835   0.84876618   0.00001739 1.0
  0.43074455   0.90247389   0.00006611 1.0
  0.31214079   0.95003585   0.00009994 1.0
  0.18722708   0.98231665   0.00011731 1.0
  0.08066419   0.99674133   0.00012858 1.0
  0.01746577   0.99984745   0.00013706 1.0
  0.01746577   0.99984745   0.00013706 1.0
  0.01786568   0.99984037   0.00024556 1.0
  0.08102149   0.99671233   0.00020124 1.0
  0.18751712   0.98226133   0.00013303 1.0
  0.31232878   0.94997407   0.00002287 1.0
  0.43075722   0.90246783   0.00017988 1.0
  0.52839464   0.84899862   0.00067471 1.0
  0.61154297   0.79121034   0.00117742 1.0
  0.68838842   0.72534106   0.00131936 1.0
  0.75832540   0.65187528   0.00109921 1.0
  0.82058605   0.57152276   0.00051573 1.0
  0.87447712   0.48506656   0.00044314 1.0
  0.91929199   0.39357372   0.00140222 1.0
  0.95447672   0.29827955   0.00187318 1.0
  0.97975148   0.20020907   0.00183595 1.0
  0.99494711   0.10039220   0.00128928 1.0
  0.99999995   0.00016995   0.00028440 1.0
  0.99490641   0.10080113   0.00060450 1.0
  0.97966614   0.20063153   0.00111879 1.0
  0.95436965   0.29862510   0.00127004 1.0
  0.91921135   0.39376309   0.00105982 1.0
  0.87449800   0.48502884   0.00051090 1.0
  0.82078368   0.57123914   0.00005654 1.0
  0.75868348   0.65145939   0.00019180 1.0
  0.68883993   0.72491342   0.00029043 1.0
  0.61199171   0.79086414   0.00023920 1.0
  0.52872065   0.84879589   0.00004001 1.0
  0.43093778   0.90238163   0.00015140 1.0
  0.31244583   0.94993555   0.00022701 1.0
  0.18759538   0.98224636   0.00026700 1.0
  0.08107633   0.99670785   0.00029288 1.0
  0.01790551   0.99983964   0.00030814 1.0
  0.01790551   0.99983964   0.00030814 1.0
  0.01776832   0.99984213   0.00003031 1.0
  0.08094489   0.99671858   0.00002541 1.0
  0.18746593   0.98227111   0.00001672 1.0
  0.31231957   0.94997710   0.00000327 1.0
  0.43081898   0.90243837   0.00002280 1.0
  0.52861432   0.84886212   0.00008483 1.0
  0.61190127   0.79093414   0.00014859 1.0
  0.68875680   0.72499244   0.00016576 1.0
  0.75860058   0.65155593   0.00013857 1.0
  0.82069848   0.57136153   0.00006436 1.0
  0.87439395   0.48521668   0.00005570 1.0
  0.91907932   0.39407255   0.00017755 1.0
  0.95426215   0.29897105   0.00023639 1.0
  0.97961127   0.20090222   0.00023132 1.0
  0.99489791   0.10088668   0.00016278 1.0
  1.00000000   0.00006213   0.00003525 1.0