# vtk DataFile Version 3.0
trk2vtk output
ASCII
DATASET POLYDATA
POINTS 3197 float
  0.43570137   1.21625805   1.00090528
  0.71911061   1.21390080   1.00092256
  1.44787908   1.20805430   1.00095868
  2.43981647   1.20060372   1.00099123
  3.51273298   1.19316506   1.00099719
  4.48443222   1.18686891   1.00095427
  5.29924297   1.18158460   1.00081944
  6.10983801   1.17627025   1.00058424
  6.92043447   1.17126513   1.00032151
  7.73103523   1.16694355   1.00010228
  8.54164124   1.16367650   1.00000000
  9.35225105   1.16184950   1.00008941
 10.16286182   1.16146326   1.00037146
 10.97347164   1.16201568   1.00074732
 11.78408051   1.16298628   1.00111520
 12.59468937   1.16385221   1.00137353
 13.40529633   1.16414404   1.00142992
 14.21590519   1.16397929   1.00130689
 15.02651596   1.16374445   1.00108111
 15.83712578   1.16380978   1.00082481
 16.64773750   1.16454768   1.00061095
 17.45834732   1.16630530   1.00050771
 18.26895523   1.16898513   1.00049591
 19.07955933   1.17237663   1.00053442
 19.89016342   1.17632556   1.00059271
 20.70076370   1.18067884   1.00064111
 21.51557922   1.18530869   1.00064898
 22.48728371   1.19119740   1.00061297
 23.56020355   1.19835973   1.00055265
 24.55214310   1.20564175   1.00048745
 25.28091431   1.21140385   1.00043511
 25.56432343   1.21373844   1.00041342
  0.43689358   1.35286689   2.31114149
  0.72027481   1.35039330   2.31117082
  1.44897079   1.34430146   2.31123257
  2.44081092   1.33663034   2.31128788
  3.51362419   1.32915139   2.31129813
  4.48523378   1.32314873   2.31122518
  5.29997349   1.31878686   2.31099391
  6.11049747   1.31507277   2.31059289
  6.92102528   1.31186223   2.31014347
  7.73155212   1.30903482   2.30976892
  8.54207993   1.30646873   2.30959320
  9.35260963   1.30403852   2.30974388
 10.16313839   1.30174398   2.31022143
 10.97366810   1.29974866   2.31085920
 11.78419971   1.29822230   2.31148434
 12.59473228   1.29733515   2.31192303
 13.40526676   1.29724026   2.31201982
 14.21580029   1.29789948   2.31181431
 15.02633286   1.29918694   2.31143355
 15.83686447   1.30098128   2.31100130
 16.64739418   1.30316186   2.31064081
 17.45792389   1.30561447   2.31046700
 18.26845169   1.30837154   2.31044769
 19.07897949   1.31150198   2.31051326
 19.88950539   1.31505513   2.31061220
 20.70002747   1.31908226   2.31069374
 21.51476479   1.32365704   2.31070757
 22.48637390   1.32979250   2.31064534
 23.55918694   1.33736157   2.31054354
 24.55102539   1.34508777   2.31043196
 25.27972221   1.35120702   2.31034207
 25.56310272   1.35368800   2.31030536
  0.44009936   1.72021532   1.99712002
  0.72340858   1.71777010   1.99718130
  1.45191908   1.71173882   1.99731016
  2.44350815   1.70412326   1.99742579
  3.51604748   1.69665551   1.99744749
  4.48740864   1.69058394   1.99729443
  5.30193949   1.68600178   1.99681139
  6.11225462   1.68190432   1.99597263
  6.92257214   1.67826366   1.99503279
  7.73289299   1.67507815   1.99424994
  8.54321480   1.67234421   1.99388242
  9.35353661   1.67005920   1.99419856
 10.16386032   1.66822290   1.99519825
 10.97418404   1.66683912   1.99653327
 11.78450871   1.66591215   1.99784112
 12.59483433   1.66544604   1.99875975
 13.40515995   1.66544390   1.99896228
 14.21548653   1.66590619   1.99853063
 15.02581215   1.66682863   1.99773347
 15.83613777   1.66820836   1.99682760
 16.64646149   1.67004275   1.99607193
 17.45678520   1.67232823   1.99570799
 18.26710701   1.67506599   1.99566698
 19.07742882   1.67825866   1.99580371
 19.88774681   1.68190598   1.99601066
 20.69806480   1.68600988   1.99618113
 21.51259422   1.69059658   1.99620974
 22.48395538   1.69667101   1.99608088
 23.55649567   1.70414019   1.99586701
 24.54808426   1.71175742   1.99563384
 25.27659416   1.71778870   1.99544668
 25.55990410   1.72023416   1.99536967
  0.43305457   0.91295838   2.18529105
  0.71652246   0.91049492   2.18528223
  1.44543958   0.90442479   2.18526292
  2.43758464   0.89677286   2.18524575
  3.51072598   0.88929498   2.18524218
  4.48263168   0.88326252   2.18526554
  5.29761887   0.87881136   2.18533659
  6.10839128   0.87494338   2.18546104
  6.91916418   0.87156105   2.18560028
  7.72993851   0.86859012   2.18571639
  8.54071617   0.86595619   2.18577075
  9.35149193   0.86358333   2.18572378
 10.16227055   0.86147153   2.18557572
 10.97304916   0.85971975   2.18537712
 11.78382969   0.85843194   2.18518305
 12.59461021   0.85771263   2.18504667
 13.40539169   0.85765469   2.18501663
 14.21617317   0.85823452   2.18508077
 15.02695274   0.85937595   2.18519974
 15.83773232   0.86100423   2.18533421
 16.64851189   0.86304653   2.18544674
 17.45928764   0.86543334   2.18550110
 18.27006531   0.86818373   2.18550706
 19.08083916   0.87133956   2.18548679
 19.89161301   0.87493193   2.18545604
 20.70238304   0.87899125   2.18543053
 21.51737022   0.88357294   2.18542647
 22.48927498   0.88968635   2.18544531
 23.56241417   0.89721918   2.18547726
 24.55455780   0.90490460   2.18551183
 25.28347588   0.91099179   2.18553948
 25.56694412   0.91345966   2.18555093
  0.42643249   0.15415084   2.29444599
  0.71004975   0.15167665   2.29437089
  1.43935394   0.14558232   2.29421306
  2.43202186   0.13790739   2.29407072
  3.50572824   0.13042212   2.29404402
  4.47814703   0.12441146   2.29423213
  5.29356527   0.12003624   2.29482532
  6.10476398   0.11630058   2.29585481
  6.91596460   0.11306870   2.29700851
  7.72716808   0.11022151   2.29796958
  8.53837109   0.10764623   2.29842043
  9.34957218   0.10522270   2.29803181
 10.16077614   0.10294902   2.29680395
 10.97198009   0.10098314   2.29516459
 11.78318405   0.09948492   2.29355812
 12.59439087   0.09861839   2.29242992
 13.40559769   0.09852743   2.29218197
 14.21680546   0.09917510   2.29271197
 15.02801323   0.10044432   2.29369187
 15.83922005   0.10221732   2.29480410
 16.65042496   0.10438097   2.29573274
 17.46162987   0.10682654   2.29618025
 18.27283287   0.10958385   2.29623008
 19.08403587   0.11271989   2.29606271
 19.89523697   0.11628163   2.29580832
 20.70643616   0.12031615   2.29559875
 21.52185249   0.12489522   2.29556370
 22.49427032   0.13103282   2.29572225
 23.56797600   0.13860404   2.29598451
 24.56064415   0.14633107   2.29627109
 25.28994560   0.15245140   2.29650116
 25.57356262   0.15493345   2.29659557
  0.43781519   1.45847464   1.95258641
  0.72117591   1.45603323   1.95262492
  1.44981885   1.45000911   1.95270550
  2.44158673   1.44239926   1.95277858
  3.51432133   1.43493199   1.95279193
  4.48585892   1.42884946   1.95269561
  5.30053759   1.42423558   1.95239282
  6.11100006   1.42008328   1.95186627
  6.92146492   1.41638255   1.95127654
  7.73193359   1.41314578   1.95078564
  8.54240131   1.41038799   1.95055497
  9.35287380   1.40812302   1.95075357
 10.16334438   1.40635085   1.95138085
 10.97381687   1.40505290   1.95221841
 11.78428936   1.40421009   1.95303929
 12.59476280   1.40380287   1.95361567
 13.40523624   1.40381432   1.95374262
 14.21570969   1.40424824   1.95347202
 15.02618408   1.40511870   1.95297170
 15.83665657   1.40643978   1.95240319
 16.64712906   1.40822554   1.95192897
 17.45759964   1.41048789   1.95170033
 18.26806831   1.41322327   1.95167518
 19.07853699   1.41642499   1.95176065
 19.88900185   1.42008638   1.95189047
 20.69946671   1.42420197   1.95199764
 21.51414299   1.42879152   1.95201552
 22.48568153   1.43485856   1.95193446
 23.55841637   1.44231558   1.95180058
 24.55018425   1.44991922   1.95165443
 25.27882767   1.45594025   1.95153689
 25.56218910   1.45838118   1.95148849
  0.44163644   1.89635324   2.36426973
  0.72491074   1.89387608   2.36434627
  1.45333314   1.88777637   2.36450768
  2.44480038   1.88009930   2.36465240
  3.51721001   1.87262154   2.36467957
  4.48845291   1.86663222   2.36448741
  5.30288410   1.86230898   2.36388302
  6.11310196   1.85865974   2.36283350
  6.92332411   1.85552216   2.36165643
  7.73354530   1.85275483   2.36067653
  8.54376698   1.85021734   2.36021662
  9.35398674   1.84776354   2.36061192
 10.16420937   1.84539318   2.36186290
 10.97443199   1.84329605   2.36353326
 11.78465557   1.84167004   2.36516953
 12.59488106   1.84071255   2.36631942
 13.40510654   1.84060264   2.36657286
 14.21533489   1.84129524   2.36603332
 15.02556038   1.84264421   2.36503625
 15.83578682   1.84450865   2.36390328
 16.64600945   1.84674644   2.36295843
 17.45623398   1.84922671   2.36250257
 18.26645660   1.85198617   2.36245203
 19.07667923   1.85510492   2.36262298
 19.88689804   1.85864139   2.36288190
 20.69711685   1.86265326   2.36309576
 21.51154709   1.86722445   2.36313128
 22.48278809   1.87336707   2.36296916
 23.55519676   1.88094926   2.36270213
 24.54666328   1.88869047   2.36241055
 25.27508354   1.89482164   2.36217594
 25.55835724   1.89730763   2.36207962
  0.43027711   0.59470022   1.72062695
  0.71380806   0.59227777   1.72059047
  1.44288874   0.58629322   1.72051239
  2.43525195   0.57871807   1.72044277
  3.50862980   0.57125354   1.72042990
  4.48075008   0.56511629   1.72052228
  5.29591703   0.56033719   1.72081316
  6.10686445   0.55590165   1.72131848
  6.91781616   0.55188262   1.72188449
  7.72876835   0.54838181   1.72235620
  8.53972340   0.54549932   1.72257745
  9.35068226   0.54334044   1.72238731
 10.16164112   0.54190397   1.72178519
 10.97260094   0.54105496   1.72098160
 11.78355980   0.54065216   1.72019434
 12.59451962   0.54055381   1.71964109
 13.40547943   0.54063237   1.71951914
 14.21643829   0.54092050   1.71977842
 15.02739906   0.54152179   1.72025847
 15.83835793   0.54253721   1.72080326
 16.64931679   0.54406810   1.72125769
 17.46027374   0.54620850   1.72147703
 18.27123070   0.54893208   1.72150123
 19.08218575   0.55218160   1.72141874
 19.89313698   0.55591464   1.72129428
 20.70408821   0.56009078   1.72119153
 21.51925468   0.56469250   1.72117472
 22.49137497   0.57072031   1.72125232
 23.56475449   0.57810986   1.72138119
 24.55711937   0.58564007   1.72152150
[...]
POINT_DATA 3197
COLOR_SCALARS tangents 4
  0.99996541   0.00831717   0.00006099 1.0
  0.99996782   0.00802218   0.00004956 1.0
  0.99997179   0.00751093   0.00003281 1.0
  0.99997597   0.00693295   0.00000556 1.0
  0.99997901   0.00647940   0.00004416 1.0
  0.99997896   0.00648518   0.00016547 1.0
  0.99997847   0.00655597   0.00029015 1.0
  0.99998089   0.00617450   0.00032412 1.0
  0.99998575   0.00533125   0.00027044 1.0
  0.99999187   0.00403035   0.00012618 1.0
  0.99999745   0.00225385   0.00011030 1.0
  0.99999983   0.00047648   0.00034795 1.0
  0.99999966   0.00068148   0.00046368 1.0
  0.99999918   0.00119737   0.00045383 1.0
  0.99999938   0.00106825   0.00031868 1.0
  0.99999993   0.00036001   0.00006956 1.0
  0.99999997   0.00020324   0.00015177 1.0
  0.99999992   0.00028971   0.00027853 1.0
  0.99999995   0.00008059   0.00031618 1.0
  0.99999955   0.00091031   0.00026383 1.0
  0.99999764   0.00216827   0.00012735 1.0
  0.99999454   0.00330593   0.00001456 1.0
  0.99999125   0.00418389   0.00004750 1.0
  0.99998813   0.00487153   0.00007191 1.0
  0.99998558   0.00537037   0.00005971 1.0
  0.99998386   0.00568199   0.00000966 1.0
  0.99998164   0.00606007   0.00003705 1.0
  0.99997772   0.00667540   0.00005622 1.0
  0.99997305   0.00734099   0.00006574 1.0
  0.99996874   0.00790635   0.00007181 1.0
  0.99996607   0.00823726   0.00007655 1.0
  0.99996607   0.00823726   0.00007655 1.0
  0.99996190   0.00872852   0.00010348 1.0
  0.99996505   0.00835962   0.00008474 1.0
  0.99997009   0.00773400   0.00005577 1.0
  0.99997570   0.00697118   0.00000956 1.0
  0.99998091   0.00617794   0.00007509 1.0
  0.99998563   0.00535362   0.00028385 1.0
  0.99998938   0.00458228   0.00049476 1.0
  0.99999200   0.00396102   0.00055447 1.0
  0.99999381   0.00348833   0.00046211 1.0
  0.99999496   0.00316594   0.00021679 1.0
  0.99999549   0.00299827   0.00018590 1.0
  0.99999582   0.00283091   0.00058918 1.0
  0.99999666   0.00246175   0.00078685 1.0
  0.99999793   0.00188315   0.00077126 1.0
  0.99999925   0.00109453   0.00054124 1.0
  0.99999999   0.00011707   0.00011942 1.0
  0.99999964   0.00081332   0.00025356 1.0
  0.99999863   0.00158841   0.00046976 1.0
  0.99999741   0.00221377   0.00053329 1.0
  0.99999628   0.00269030   0.00044476 1.0
  0.99999540   0.00302592   0.00021444 1.0
  0.99999421   0.00340156   0.00002383 1.0
  0.99999254   0.00386219   0.00008089 1.0
  0.99999038   0.00438372   0.00012207 1.0
  0.99998765   0.00496850   0.00010060 1.0
  0.99998424   0.00561494   0.00001697 1.0
  0.99998006   0.00631462   0.00006404 1.0
  0.99997511   0.00705518   0.00009489 1.0
  0.99996965   0.00778953   0.00011249 1.0
  0.99996474   0.00839723   0.00012334 1.0
  0.99996167   0.00875462   0.00012956 1.0
  0.99996167   0.00875462   0.00012956 1.0
  0.99996273   0.00863060   0.00021627 1.0
  0.99996572   0.00827863   0.00017688 1.0
  0.99997050   0.00767994   0.00011661 1.0
  0.99997576   0.00696251   0.00002023 1.0
  0.99998045   0.00625045   0.00015757 1.0
  0.99998400   0.00562544   0.00059301 1.0
  0.99998668   0.00505656   0.00103509 1.0
  0.99998923   0.00449282   0.00115984 1.0
  0.99999181   0.00393114   0.00096609 1.0
  0.99999421   0.00337388   0.00045355 1.0
  0.99999595   0.00281986   0.00039014 1.0
  0.99999667   0.00226612   0.00123369 1.0
  0.99999718   0.00170768   0.00164752 1.0
  0.99999804   0.00114395   0.00161397 1.0
  0.99999919   0.00057521   0.00113365 1.0
  0.99999997   0.00000265   0.00024994 1.0
  0.99999970   0.00057050   0.00053269 1.0
  0.99999887   0.00113836   0.00098374 1.0
  0.99999793   0.00170268   0.00111791 1.0
  0.99999700   0.00226377   0.00093255 1.0
  0.99999592   0.00282044   0.00044913 1.0
  0.99999429   0.00337859   0.00005061 1.0
  0.99999222   0.00393996   0.00016874 1.0
  0.99998984   0.00450106   0.00025539 1.0
  0.99998715   0.00506449   0.00021037 1.0
  0.99998415   0.00563101   0.00003512 1.0
  0.99998044   0.00625340   0.00013266 1.0
  0.99997573   0.00696384   0.00019939 1.0
  0.99997047   0.00768162   0.00023514 1.0
  0.99996570   0.00827864   0.00025690 1.0
  0.99996271   0.00863142   0.00027181 1.0
  0.99996271   0.00863142   0.00027181 1.0
  0.99996224   0.00869011   0.00003112 1.0
  0.99996533   0.00832732   0.00002649 1.0
  0.99997026   0.00771228   0.00001730 1.0
  0.99997572   0.00696805   0.00000333 1.0
  0.99998074   0.00620672   0.00002404 1.0
  0.99998508   0.00546155   0.00008718 1.0
  0.99998861   0.00477068   0.00015350 1.0
  0.99999128   0.00417169   0.00017173 1.0
  0.99999328   0.00366429   0.00014321 1.0
  0.99999472   0.00324863   0.00006705 1.0
  0.99999572   0.00292664   0.00005793 1.0
  0.99999659   0.00260464   0.00018261 1.0
  0.99999764   0.00216061   0.00024495 1.0
  0.99999871   0.00158837   0.00023936 1.0
  0.99999959   0.00088718   0.00016820 1.0
  1.00000000   0.00007146   0.00003705 1.0
  0.99999974   0.00071515   0.00007910 1.0
  0.99999900   0.00140782   0.00014674 1.0
  0.99999797   0.00200828   0.00016585 1.0
  0.99999682   0.00251892   0.00013880 1.0
  0.99999566   0.00294384   0.00006705 1.0
  0.99999425   0.00339228   0.00000735 1.0
  0.99999242   0.00389234   0.00002500 1.0
  0.99999018   0.00443075   0.00003793 1.0
  0.99998747   0.00500668   0.00003146 1.0
  0.99998420   0.00562170   0.00000497 1.0
  0.99998022   0.00629001   0.00001938 1.0
  0.99997536   0.00701927   0.00002977 1.0
  0.99997000   0.00774605   0.00003484 1.0
  0.99996513   0.00835069   0.00003794 1.0
  0.99996210   0.00870566   0.00004037 1.0
  0.99996210   0.00870566   0.00004037 1.0
  0.99996192   0.00872336   0.00026479 1.0
  0.99996506   0.00835608   0.00021641 1.0
  0.99997010   0.00773139   0.00014338 1.0
  0.99997570   0.00697126   0.00002487 1.0
  0.99998088   0.00618102   0.00019344 1.0
  0.99998534   0.00536554   0.00072745 1.0
  0.99998859   0.00460506   0.00126908 1.0
  0.99999105   0.00398404   0.00142221 1.0
  0.99999314   0.00350982   0.00118473 1.0
  0.99999481   0.00317462   0.00055578 1.0
  0.99999542   0.00298756   0.00047907 1.0
  0.99999493   0.00280283   0.00151361 1.0
  0.99999502   0.00242340   0.00202089 1.0
  0.99999633   0.00184691   0.00198034 1.0
  0.99999846   0.00106820   0.00139076 1.0
  0.99999995   0.00011213   0.00030566 1.0
  0.99999947   0.00079839   0.00065335 1.0
  0.99999805   0.00156460   0.00120795 1.0
  0.99999667   0.00218562   0.00137107 1.0
  0.99999579   0.00266719   0.00114476 1.0
  0.99999530   0.00301473   0.00055166 1.0
  0.99999422   0.00339902   0.00006143 1.0
  0.99999251   0.00386588   0.00020632 1.0
  0.99999031   0.00439065   0.00031360 1.0
  0.99998760   0.00497346   0.00025834 1.0
  0.99998423   0.00561553   0.00004298 1.0
  0.99998007   0.00631157   0.00016304 1.0
  0.99997511   0.00705131   0.00024425 1.0
  0.99996966   0.00778386   0.00028869 1.0
  0.99996474   0.00839174   0.00031546 1.0
  0.99996165   0.00875110   0.00033288 1.0
  0.99996165   0.00875110   0.00033288 1.0
  0.99996288   0.00861558   0.00013588 1.0
  0.99996582   0.00826731   0.00011059 1.0
  0.99997056   0.00767278   0.00007368 1.0
  0.99997577   0.00696080   0.00001245 1.0
  0.99998040   0.00626061   0.00009914 1.0
  0.99998389   0.00566334   0.00037166 1.0
  0.99998666   0.00512330   0.00064968 1.0
  0.99998931   0.00456614   0.00072763 1.0
  0.99999184   0.00399367   0.00060570 1.0
  0.99999417   0.00340269   0.00028461 1.0
  0.99999607   0.00279463   0.00024504 1.0
  0.99999731   0.00218658   0.00077397 1.0
  0.99999818   0.00160147   0.00103343 1.0
  0.99999895   0.00103990   0.00101283 1.0
  0.99999962   0.00050245   0.00071116 1.0
  0.99999999   0.00001412   0.00015665 1.0
  0.99999980   0.00053539   0.00033389 1.0
  0.99999923   0.00107402   0.00061732 1.0
  0.99999843   0.00163001   0.00070145 1.0
  0.99999740   0.00220335   0.00058511 1.0
  0.99999606   0.00279140   0.00028211 1.0
  0.99999430   0.00337504   0.00003104 1.0
  0.99999219   0.00395043   0.00010546 1.0
  0.99998978   0.00451760   0.00016018 1.0
  0.99998710   0.00507799   0.00013223 1.0
  0.99998413   0.00563351   0.00002195 1.0
  0.99998050   0.00624465   0.00008344 1.0
  0.99997583   0.00695124   0.00012479 1.0
  0.99997060   0.00766653   0.00014736 1.0
  0.99996585   0.00826305   0.00016131 1.0
  0.99996289   0.00861387   0.00017080 1.0
  0.99996289   0.00861387   0.00017080 1.0
  0.99996173   0.00874444   0.00027016 1.0
  0.99996492   0.00837356   0.00022158 1.0
  0.99997001   0.00774292   0.00014596 1.0
  0.99997569   0.00697269   0.00002534 1.0
  0.99998097   0.00616653   0.00019785 1.0
  0.99998564   0.00530822   0.00074209 1.0
  0.99998902   0.00450397   0.00129534 1.0
  0.99999145   0.00387247   0.00145277 1.0
  0.99999344   0.00341549   0.00120942 1.0
  0.99999493   0.00313183   0.00056763 1.0
  0.99999529   0.00302855   0.00048789 1.0
  0.99999453   0.00292555   0.00154399 1.0
  0.99999453   0.00258832   0.00206160 1.0
  0.99999595   0.00200686   0.00201952 1.0
  0.99999829   0.00118175   0.00141922 1.0
  0.99999994   0.00013565   0.00031280 1.0
  0.99999941   0.00085483   0.00066591 1.0
  0.99999786   0.00166493   0.00123060 1.0
  0.99999637   0.00230112   0.00139833 1.0
  0.99999551   0.00276194   0.00116616 1.0
  0.99999516   0.00306120   0.00056263 1.0
  0.99999420   0.00340578   0.00006238 1.0
  0.99999257   0.00384923   0.00021099 1.0
  0.99999042   0.00436478   0.00031957 1.0
  0.99998771   0.00495153   0.00026395 1.0
  0.99998425   0.00561267   0.00004362 1.0
  0.99997999   0.00632438   0.00016692 1.0
  0.99997498   0.00707006   0.00024899 1.0
  0.99996948   0.00780760   0.00029409 1.0
  0.99996453   0.00841678   0.00032206 1.0
  0.99996144   0.00877559   0.00034002 1.0
  0.99996144   0.00877559   0.00034002 1.0
  0.99996349   0.00854356   0.00012865 1.0
  0.99996631   0.00820807   0.00010709 1.0
  0.99997086   0.00763323   0.00007015 1.0
  0.99997582   0.00695407   0.00001199 1.0
  0.99998007   0.00631314   0.00009503 1.0
  0.99998275   0.00586262   0.00035682 1.0
  0.99998485   0.00546949   0.00062312 1.0
  0.99998748   0.00495587   0.00069794 1.0
  0.99999051   0.00431688   0.00058167 1.0
  0.99999365   0.00355440   0.00027283 1.0
  0.99999643   0.00266212   0.00023446 1.0
  0.99999816   0.00177132   0.00074249 1.0
  0.99999896   0.00104692   0.00099091 1.0
  0.99999941   0.00049671   0.00097077 1.0
  0.99999976   0.00012127   0.00068222 1.0
  0.99999998   0.00009687   0.00015038 1.0
  0.99999989   0.00035529   0.00031972 1.0
  0.99999955   0.00074146   0.00059196 1.0
  0.99999899   0.00125213   0.00067178 1.0
  0.99999806   0.00188774   0.00056036 1.0
  0.99999648   0.00263935   0.00027048 1.0
  0.99999436   0.00335845   0.00002984 1.0
  0.99999197   0.00400700   0.00010172 1.0
  0.99998939   0.00460324   0.00015347 1.0
  0.99998673   0.00514961   0.00012671 1.0
  0.99998407   0.00564504   0.00002062 1.0
  0.99998077   0.00620057   0.00007983 1.0
  0.99997630   0.00688421   0.00012005 1.0
  0.99997120   0.00758793   0.00014138 1.0
  0.99996656   0.00817650   0.00015500 1.0
  0.99996367   0.00852217   0.00016397 1.0
  0.99996367   0.00852217   0.00016397 1.0
  0.99996394   0.00849246   0.00003323 1.0
  0.99996666   0.00816530   0.00002699 1.0
  0.99997108   0.00760564   0.00001803 1.0
  0.99997586   0.00694897   0.00000322 1.0
  0.99997983   0.00635117   0.00002441 1.0
  0.99998197   0.00600435   0.00009099 1.0
  0.99998365   0.00571680   0.00015838 1.0
  0.99998629   0.00523358   0.00017793 1.0
  0.99998965   0.00454772   0.00014735 1.0
  0.99999329   0.00366277   0.00006956 1.0
  0.99999670   0.00257017   0.00006029 1.0
  0.99999889   0.00147728   0.00019014 1.0
  0.99999975   0.00065379   0.00025352 1.0
  0.99999996   0.00011235   0.00024852 1.0
  0.99999997   0.00014882   0.00017426 1.0
  0.99999999   0.00015735   0.00003779 1.0
  0.99999997   0.00022881   0.00008220 1.0
  0.99999986   0.00050762   0.00015235 1.0
  0.99999950   0.00098701   0.00017308 1.0
  0.99999860   0.00166610   0.00014382 1.0
  0.99999679   0.00253282   0.00006941 1.0
  0.99999440   0.00334661   0.00000794 1.0
  0.99999181   0.00404716   0.00002559 1.0
  0.99998912   0.00466477   0.00003956 1.0
  0.99998648   0.00519917   0.00003235 1.0
  0.99998402   0.00565355   0.00000541 1.0
  0.99998097   0.00616862   0.00002024 1.0
  0.99997663   0.00683676   0.00003044 1.0
  0.99997164   0.00753137   0.00003629 1.0
  0.99996707   0.00811557   0.00003942 1.0
  0.99996424   0.00845714   0.00004164 1.0
  0.99996424   0.00845714   0.00004164 1.0
  0.99996091   0.00884136   0.00005971 1.0
  0.99996428   0.00845220   0.00004873 1.0
  0.99996962   0.00779481   0.00003292 1.0
  0.99997562   0.00698249   0.00000555 1.0
  0.99998142   0.00609521   0.00004391 1.0
  0.99998727   0.00504347   0.00016235 1.0
  0.99999180   0.00404014   0.00028493 1.0
  0.99999433   0.00335326   0.00031933 1.0
  0.99999552   0.00298262   0.00026552 1.0
  0.99999570   0.00292867   0.00012438 1.0
  0.99999487   0.00320154   0.00010733 1.0
  0.99999390   0.00347558   0.00034109 1.0
  0.99999438   0.00332297   0.00045577 1.0
  0.99999618   0.00272680   0.00044577 1.0
  0.99999853   0.00168795   0.00031198 1.0
  0.99999997   0.00024773   0.00006822 1.0
  0.99999939   0.00109060   0.00014761 1.0
  0.99999775   0.00210239   0.00027287 1.0
  0.99999604   0.00279663   0.00030933 1.0
  0.99999492   0.00317654   0.00025964 1.0
  0.99999467   0.00326137   0.00012409 1.0
  0.99999413   0.00342735   0.00001470 1.0
  0.99999288   0.00377403   0.00004763 1.0
  0.99999096   0.00425067   0.00007057 1.0
  0.99998820   0.00485817   0.00005734 1.0
  0.99998434   0.00559663   0.00001082 1.0
  0.99997962   0.00638405   0.00003753 1.0
  0.99997437   0.00715944   0.00005443 1.0
  0.99996870   0.00791220   0.00006464 1.0
  0.99996360   0.00853169   0.00007195 1.0
  0.99996041   0.00889770   0.00007317 1.0
  0.99996041   0.00889770   0.00007317 1.0
  0.99996366   0.00852032   0.00030006 1.0
  0.99996644   0.00818888   0.00024614 1.0
  0.99997095   0.00762104   0.00016292 1.0
  0.99997584   0.00695184   0.00002801 1.0
  0.99997994   0.00633071   0.00021959 1.0
  0.99998210   0.00592602   0.00082543 1.0
  0.99998339   0.00558133   0.00144065 1.0
  0.99998579   0.00508106   0.00161487 1.0
  0.99998932   0.00442158   0.00134487 1.0
  0.99999331   0.00360378   0.00063035 1.0
  0.99999641   0.00262264   0.00054324 1.0
  0.99999718   0.00164062   0.00171846 1.0
  0.99999699   0.00087284   0.00229408 1.0
  0.99999742   0.00032606   0.00224831 1.0
  0.99999875   0.00000029   0.00157838 1.0
  0.99999993   0.00012448   0.00034755 1.0
  0.99999968   0.00030046   0.00074203 1.0
  0.99999886   0.00063977   0.00137106 1.0
  0.99999814   0.00113681   0.00155689 1.0
  0.99999755   0.00179129   0.00129984 1.0
  0.99999644   0.00259350   0.00062608 1.0
  0.99999438   0.00335333   0.00007004 1.0
  0.99999187   0.00402518   0.00023528 1.0
  0.99998922   0.00463052   0.00035608 1.0
  0.99998659   0.00517111   0.00029325 1.0
  0.99998404   0.00564877   0.00004845 1.0
  0.99998085   0.00618611   0.00018510 1.0
  0.99997641   0.00686267   0.00027725 1.0
  0.99997135   0.00756260   0.00032729 1.0
  0.99996674   0.00814830   0.00035809 1.0
  0.99996385   0.00849424   0.00037834 1.0
  0.99996385   0.00849424   0.00037834 1.0
  0.99996451   0.00842512   0.00002986 1.0
  0.99996712   0.00810932   0.00002502 1.0
  0.99997136   0.00756857   0.00001646 1.0
  0.99997590   0.00694293   0.00000322 1.0
  0.99997951   0.00640118   0.00002245 1.0
  0.99998083   0.00619070   0.00008353 1.0
  0.99998173   0.00604379   0.00014632 1.0
  0.99998432   0.00559823   0.00016323 1.0
  0.99998822   0.00485238   0.00013587 1.0
  0.99999276   0.00380568   0.00006397 1.0
  0.99999700   0.00244722   0.00005603 1.0
  0.99999939   0.00108788   0.00017543 1.0
  0.99999996   0.00013558   0.00023396 1.0
  0.99999990   0.00039674   0.00022911 1.0
  0.99999986   0.00050615   0.00016087 1.0
  0.99999997   0.00023558   0.00003470 1.0
  1.00000000   0.00006117   0.00007617 1.0
  0.99999997   0.00019734   0.00014132 1.0
  0.99999979   0.00063555   0.00015955 1.0
  0.99999905   0.00137228   0.00013352 1.0
  0.99999714   0.00239076   0.00006456 1.0
  0.99999445   0.00333129   0.00000735 1.0
  0.99999159   0.00410008   0.00002382 1.0
  0.99998874   0.00474504   0.00003647 1.0
  0.99998614   0.00526560   0.00002985 1.0
  0.99998396   0.00566464   0.00000497 1.0
  0.99998123   0.00612664   0.00001840 1.0
  0.99997705   0.00677427   0.00002844 1.0
  0.99997219   0.00745731   0.00003293 1.0
  0.99996773   0.00803373   0.00003664 1.0
  0.99996495   0.00837297   0.00003827 1.0
  0.99996495   0.00837297   0.00003827 1.0
  0.99996097   0.00883399   0.00011184 1.0
  0.99996433   0.00844595   0.00009353 1.0
  0.99996965   0.00779087   0.00006078 1.0
  0.99997563   0.00698153   0.00001088 1.0
  0.99998139   0.00610087   0.00008216 1.0
  0.99998713   0.00506320   0.00031033 1.0
  0.99999155   0.00407596   0.00054068 1.0
  0.99999406   0.00339357   0.00060565 1.0
  0.99999532   0.00301593   0.00050422 1.0
  0.99999564   0.00294360   0.00023638 1.0
  0.99999490   0.00318792   0.00020463 1.0
  0.99999390   0.00343282   0.00064564 1.0
  0.99999430   0.00326613   0.00086144 1.0
  0.99999608   0.00267046   0.00084527 1.0
  0.99999847   0.00164835   0.00059184 1.0
  0.99999996   0.00023976   0.00013054 1.0
  0.99999939   0.00107209   0.00027901 1.0
  0.99999773   0.00206775   0.00051657 1.0
  0.99999603   0.00275763   0.00058595 1.0
  0.99999494   0.00314455   0.00048835 1.0
  0.99999471   0.00324509   0.00023638 1.0
  0.99999413   0.00342562   0.00002675 1.0
  0.99999285   0.00377946   0.00008908 1.0
  0.99999092   0.00425942   0.00013377 1.0
  0.99998816   0.00486551   0.00010966 1.0
  0.99998433   0.00559845   0.00001813 1.0
  0.99997965   0.00637948   0.00006892 1.0
  0.99997442   0.00715236   0.00010418 1.0
  0.99996875   0.00790415   0.00012229 1.0
  0.99996367   0.00852347   0.00013408 1.0
  0.99996050   0.00888738   0.00014295 1.0
  0.99996050   0.00888738   0.00014295 1.0
  0.99996415   0.00846264   0.00027193 1.0
  0.99996683   0.00814233   0.00022278 1.0
  0.99997119   0.00758945   0.00014722 1.0
  0.99997588   0.00694607   0.00002531 1.0
  0.99997968   0.00637228   0.00019908 1.0
  0.99998121   0.00608384   0.00074688 1.0
  0.99998201   0.00585552   0.00130345 1.0
  0.99998441   0.00538881   0.00146069 1.0
  0.99998832   0.00467669   0.00121704 1.0
  0.99999291   0.00372299   0.00057105 1.0
  0.99999671   0.00251682   0.00049067 1.0
  0.99999794   0.00130948   0.00155253 1.0
  0.99999776   0.00043101   0.00207377 1.0
  0.99999793   0.00010742   0.00203233 1.0
  0.99999894   0.00030198   0.00142704 1.0
  0.99999993   0.00018971   0.00031477 1.0
  0.99999976   0.00015518   0.00066907 1.0
  0.99999916   0.00037311   0.00123835 1.0
  0.99999866   0.00083394   0.00140587 1.0
  0.99999813   0.00153857   0.00117325 1.0
  0.99999679   0.00247008   0.00056561 1.0
  0.99999442   0.00333988   0.00006260 1.0
  0.99999170   0.00406920   0.00021234 1.0
  0.99998890   0.00469991   0.00032153 1.0
  0.99998630   0.00522716   0.00026480 1.0
  0.99998399   0.00565858   0.00004430 1.0
  0.99998107   0.00615015   0.00016758 1.0
  0.99997678   0.00681028   0.00025124 1.0
  0.99997183   0.00749987   0.00029553 1.0
  0.99996730   0.00808054   0.00032428 1.0
  0.99996449   0.00842018   0.00034128 1.0
  0.99996449   0.00842018   0.00034128 1.0
  0.99996323   0.00857567   0.00002986 1.0
  0.99996611   0.00823265   0.00002502 1.0
  0.99997074   0.00765028   0.00001646 1.0
  0.99997580   0.00695693   0.00000322 1.0
  0.99998021   0.00629102   0.00002245 1.0
  0.99998330   0.00577816   0.00008353 1.0
  0.99998583   0.00532236   0.00014632 1.0
  0.99998851   0.00479004   0.00016323 1.0
  0.99999126   0.00417949   0.00013646 1.0
  0.99999391   0.00348981   0.00006338 1.0
  0.99999630   0.00271868   0.00005485 1.0
  0.99999809   0.00194813   0.00017484 1.0
  0.99999915   0.00128346   0.00023278 1.0
  0.99999971   0.00072761   0.00022778 1.0
  0.99999995   0.00028381   0.00016029 1.0
  1.00000000   0.00006147   0.00003470 1.0