# vtk DataFile Version 3.0
trk2vtk output
ASCII
DATASET POLYDATA
POINTS 3197 float
 11.03354263  25.70862389   1.00090528
 10.93191814  25.60132217   1.00092256
 10.69805622  25.30211639   1.00095868
 10.44940853  24.84939003   1.00099123
 10.27961254  24.31730461   1.00099719
 10.22020721  23.81480408   1.00095427
 10.24085045  23.39075851   1.00081944
 10.32472038  22.97666550   1.00058424
 10.47025776  22.57981682   1.00032151
 10.67450047  22.20952606   1.00010228
 10.93300915  21.87470055   1.00000000
 11.23991776  21.58358765   1.00008941
 11.58781147  21.34319496   1.00037146
 11.96807766  21.15880013   1.00074732
 12.37159538  21.03416252   1.00111520
 12.78900814  20.97155190   1.00137353
 13.21096611  20.97184181   1.00142992
 13.62817669  21.03512955   1.00130689
 14.03127861  21.16040230   1.00108111
 14.41099834  21.34521484   1.00082481
 14.75837898  21.58567810   1.00061095
 15.06504250  21.87646103   1.00050771
 15.32379723  22.21064758   1.00049591
 15.52873611  22.58027840   1.00053442
 15.67523003  22.97668076   1.00059271
 15.76005173  23.39064407   1.00064111
 15.78135681  23.81484413   1.00064898
 15.72231674  24.31771278   1.00061297
 15.55265427  24.85028458   1.00055265
 15.30394554  25.30347061   1.00048745
 15.06994247  25.60299110   1.00043511
 14.96824360  25.71040535   1.00041342
 11.13014317  25.61202240   2.31114149
 11.03342724  25.51006699   2.31117082
 10.81084919  25.22568130   2.31123257
 10.57418919  24.79522514   2.31128788
 10.41266155  24.28917885   2.31129813
 10.35644341  23.81124496   2.31122518
 10.37695503  23.40809441   2.31099391
 10.45816803  23.01485252   2.31059289
 10.59801483  22.63851929   2.31014347
 10.79314232  22.28771973   2.30976892
 11.03896141  21.97042847   2.30959320
 11.32977200  21.69378853   2.30974388
 11.65897560  21.46408653   2.31022143
 12.01917171  21.28670502   2.31085920
 12.40216732  21.16589928   2.31148434
 12.79914665  21.10464859   2.31192303
 13.20086288  21.10455322   2.31201982
 13.59790802  21.16558456   2.31181431
 13.98104000  21.28618431   2.31143355
 14.34141541  21.46342850   2.31100130
 14.67078590  21.69310760   2.31064081
 14.96167564  21.96985435   2.31046700
 15.20741463  22.28735542   2.31044769
 15.40231705  22.63836861   2.31051326
 15.54185295  23.01484680   2.31061220
 15.62275696  23.40813065   2.31069374
 15.64305305  23.81123161   2.31070757
 15.58671570  24.28904533   2.31064534
 15.42514420  24.79493332   2.31054354
 15.18850517  25.22524071   2.31043196
 14.96597195  25.50952339   2.31034207
 14.86928082  25.61144257   2.31030536
 11.38990784  25.35225868   1.99712002
 11.30664539  25.26445007   1.99718130
 11.11503220  25.01954651   1.99731016
 10.91129780  24.64888191   1.99742579
 10.77222538  24.21315956   1.99744749
 10.72375965  23.80164528   1.99729443
 10.74123287  23.45448685   1.99681139
 10.81085014  23.11576653   1.99597263
 10.93095684  22.79149628   1.99503279
 11.09878063  22.48915291   1.99424994
 11.31044865  22.21570587   1.99388242
 11.56107712  21.97746086   1.99419856
 11.84488869  21.77990723   1.99519825
 12.15534306  21.62760544   1.99653327
 12.48528290  21.52407074   1.99784112
 12.82709789  21.47169685   1.99875975
 13.17290306  21.47169495   1.99896228
 13.51471996  21.52406502   1.99853063
 13.84466267  21.62759590   1.99773347
 14.15512085  21.77989388   1.99682760
 14.43893623  21.97744751   1.99607193
 14.68956757  22.21569443   1.99570799
 14.90123272  22.48914528   1.99566698
 15.06905174  22.79149246   1.99580371
 15.18915176  23.11576653   1.99601066
 15.25876427  23.45448875   1.99618113
 15.27623177  23.80164528   1.99620974
 15.22776413  24.21315575   1.99608088
 15.08868980  24.64887619   1.99586701
 14.88495731  25.01953697   1.99563384
 14.69334507  25.26443863   1.99544668
 14.61008358  25.35224533   1.99536967
 10.81906891  25.92309761   2.18529105
 10.70627499  25.80416870   2.18528223
 10.44669819  25.47245598   2.18526292
 10.17069912  24.97038269   2.18524575
  9.98230839  24.38016319   2.18524218
  9.91669941  23.82273674   2.18526554
  9.94049835  23.35250854   2.18533659
 10.03501606  22.89377403   2.18546104
 10.19792175  22.45468903   2.18560028
 10.42538071  22.04534531   2.18571639
 10.71209431  21.67511368   2.18577075
 11.05142879  21.35242844   2.18572378
 11.43562698  21.08467102   2.18557572
 11.85594273  20.87807083   2.18537712
 12.30275440  20.73749161   2.18518305
 12.76576519  20.66629601   2.18504667
 13.23424244  20.66623688   2.18501663
 13.69729424  20.73729897   2.18508077
 14.14418888  20.87775230   2.18519974
 14.56461430  21.08426857   2.18533421
 14.94891453  21.35201073   2.18544674
 15.28829765  21.67476273   2.18550110
 15.57496262  22.04512215   2.18550706
 15.80228424  22.45459557   2.18548679
 15.96500015  22.89377022   2.18545604
 16.05932808  23.35253143   2.18543053
 16.08299446  23.82272911   2.18542647
 16.01731300  24.38008308   2.18544531
 15.82889557  24.97020531   2.18547726
 15.55290985  25.47218704   2.18551183
 15.29335976  25.80383682   2.18553948
 15.18058014  25.92274284   2.18555093
 10.28249073  26.45967484   2.29444599
 10.14194202  26.31149101   2.29437089
  9.81848907  25.89817047   2.29421306
  9.47457409  25.27257156   2.29407072
  9.23983097  24.53713608   2.29404402
  9.15809345  23.84255791   2.29423213
  9.18779278  23.25664139   2.29482532
  9.30563641  22.68506813   2.29585481
  9.50869465  22.13800621   2.29700851
  9.79216194  21.62801552   2.29796958
 10.14941692  21.16674995   2.29842043
 10.57218838  20.76468468   2.29803181
 11.05083084  20.43099594   2.29680395
 11.57448864  20.17346764   2.29516459
 12.13119221  19.99818993   2.29355812
 12.70812130  19.90939331   2.29242992
 13.29188061  19.90930176   2.29218197
 13.86887264  19.99788475   2.29271197
 14.42570877  20.17296410   2.29369187
 14.94954014  20.43036270   2.29480410
 15.42834473  20.76402855   2.29573274
 15.85119438  21.16619873   2.29618025
 16.20837402  21.62766266   2.29623008
 16.49162483  22.13785744   2.29606271
 16.69438553  22.68506241   2.29580832
 16.81193352  23.25667572   2.29559875
 16.84142685  23.84254646   2.29556370
 16.75957680  24.53700829   2.29572225
 16.52479172  25.27229500   2.29598451
 16.18089485  25.89775085   2.29627109
 15.85748672  26.31097221   2.29650116
 15.71696091  26.45912170   2.29659557
 11.20482159  25.53734398   1.95258641
 11.11199188  25.43943977   1.95262492
 10.89835930  25.16637993   1.95270550
 10.67121315  24.75310516   1.95277858
 10.51615620  24.26729774   1.95279193
 10.46210957  23.80848503   1.95269561
 10.48155975  23.42141724   1.95239282
 10.55912781  23.04374123   1.95186627
 10.69299030  22.68215752   1.95127654
 10.88007259  22.34501266   1.95078564
 11.11607170  22.04009438   1.95055497
 11.39554787  21.77445602   1.95075357
 11.71204185  21.55423355   1.95138085
 12.05823421  21.38449669   1.95221841
 12.42612553  21.26914215   1.95303929
 12.80723190  21.21080971   1.95361567
 13.19277096  21.21082115   1.95374262
 13.57386875  21.26918030   1.95347202
 13.94174480  21.38455772   1.95297170
 14.28791618  21.55430984   1.95240319
 14.60439110  21.77453423   1.95192897
 14.88385773  22.04016113   1.95170033
 15.11986732  22.34505463   1.95167518
 15.30697441  22.68217468   1.95176065
 15.44087410  23.04374123   1.95189047
 15.51847839  23.42141342   1.95199764
 15.53795242  23.80848503   1.95201552
 15.48391914  24.26731300   1.95193446
 15.32886696  24.75313950   1.95180058
 15.10171890  25.16642952   1.95165443
 14.88808155  25.43950272   1.95153689
 14.79524899  25.53741074   1.95148849
 11.51446056  25.22770500   2.36426973
 11.43761539  25.14671135   2.36434627
 11.26076412  24.92078781   2.36450768
 11.07272434  24.57880592   2.36465240
 10.94438934  24.17675781   2.36467957
 10.89975071  23.79704666   2.36448741
 10.91613007  23.47676086   2.36388302
 10.98078823  23.16439247   2.36283350
 11.09202862  22.86550331   2.36165643
 11.24713707  22.58692741   2.36067653
 11.44243336  22.33494949   2.36021662
 11.67337608  22.11518478   2.36061192
 11.93476677  21.93258858   2.36186290
 12.22079945  21.79147339   2.36353326
 12.52501202  21.69528008   2.36516953
 12.84040546  21.64645767   2.36631942
 13.15960121  21.64634705   2.36657286
 13.47507286  21.69491386   2.36603332
 13.77944183  21.79086685   2.36503625
 14.06568336  21.93182373   2.36390328
 14.32726860  22.11439514   2.36295843
 14.55830479  22.33428383   2.36250257
 14.75350761  22.58650208   2.36245203
 14.90835476  22.86532784   2.36262298
 15.01923370  23.16438675   2.36288190
 15.08353233  23.47680473   2.36309576
 15.09966278  23.79703140   2.36313128
 15.05488586  24.17660522   2.36296916
 14.92650032  24.57846832   2.36270213
 14.73848343  24.92027473   2.36241055
 14.56168556  25.14608002   2.36217594
 14.48486900  25.22702980   2.36207962
 10.59401798  26.14814758   1.72062695
 10.46961689  26.01691818   1.72059047
 10.18333244  25.65093040   1.72051239
  9.87894058  25.09703636   1.72044277
  9.67113876  24.44595146   1.72042990
  9.59865570  23.83104897   1.72052228
  9.62457180  23.31227112   1.72081316
  9.72828007  22.80600548   1.72131848
  9.90743637  22.32121658   1.72188449
 10.15801430  21.86913490   1.72235620
 10.47430992  21.46028328   1.72257745
 10.84905434  21.10423279   1.72238731
 11.27351093  20.80927658   1.72178519
 11.73773384  20.58214188   1.72098160
 12.23091984  20.42793655   1.72019434
 12.74168110  20.35005188   1.71964109
 13.25831413  20.35013008   1.71951914
 13.76902103  20.42819786   1.71977842
 14.26209545  20.58257484   1.72025847
 14.72617054  20.80982018   1.72080326
 15.15048981  21.10479546   1.72125769
 15.52516747  21.46075821   1.72147703
 15.84152985  21.86943817   1.72150123
 16.09229660  22.32134247   1.72141874
 16.27171135  22.80600739   1.72129428
 16.37567711  23.31224060   1.72119153
 16.40177155  23.83105850   1.72117472
 16.32938766  24.44606018   1.72125232
 16.12162209  25.09727859   1.72138119
 15.81721306  25.65129662   1.72152150
[...]
POINT_DATA 3197
COLOR_SCALARS tangents 4
  0.68763850   0.72605322   0.00011696 1.0
  0.61581966   0.78788714   0.00009511 1.0
  0.48139573   0.87650337   0.00006301 1.0
  0.30401010   0.95266881   0.00001067 1.0
  0.11740188   0.99308448   0.00008481 1.0
  0.04862406   0.99881710   0.00031757 1.0
  0.19850816   0.98009908   0.00055668 1.0
  0.34430921   0.93885610   0.00062158 1.0
  0.48297640   0.87563321   0.00051841 1.0
  0.61112160   0.79153669   0.00024180 1.0
  0.72553073   0.68818974   0.00021136 1.0
  0.82269725   0.56847937   0.00066699 1.0
  0.89979206   0.43631807   0.00088938 1.0
  0.95545975   0.29512016   0.00087108 1.0
  0.98893662   0.14833744   0.00061203 1.0
  0.99999976   0.00068708   0.00013363 1.0
  0.98868947   0.14997682   0.00029154 1.0
  0.95494848   0.29677116   0.00053488 1.0
  0.89915664   0.43762652   0.00060691 1.0
  0.82222646   0.56916025   0.00050620 1.0
  0.72564590   0.68806829   0.00024428 1.0
  0.61221706   0.79068974   0.00002792 1.0
  0.48489863   0.87457036   0.00009110 1.0
  0.34664470   0.93799650   0.00013794 1.0
  0.20073101   0.97964639   0.00011454 1.0
  0.05016092   0.99874115   0.00001852 1.0
  0.11660563   0.99317829   0.00007110 1.0
  0.30354125   0.95281829   0.00010792 1.0
  0.48111121   0.87665956   0.00012614 1.0
  0.61564842   0.78802094   0.00013768 1.0
  0.68752376   0.72616187   0.00014667 1.0
  0.68752376   0.72616187   0.00014667 1.0
  0.68821921   0.72550278   0.00020868 1.0
  0.61633460   0.78748437   0.00017099 1.0
  0.48177669   0.87629402   0.00011260 1.0
  0.30408032   0.95264640   0.00001930 1.0
  0.11682204   0.99315285   0.00015160 1.0
  0.05081260   0.99870804   0.00057291 1.0
  0.20225349   0.97933270   0.00099870 1.0
  0.34833052   0.93737111   0.00111941 1.0
  0.48609732   0.87390418   0.00093308 1.0
  0.61244453   0.79051344   0.00043778 1.0
  0.72453905   0.68923364   0.00037541 1.0
  0.82009708   0.57222318   0.00118966 1.0
  0.89711605   0.44179212   0.00158845 1.0
  0.95368173   0.30081345   0.00155662 1.0
  0.98830481   0.15248741   0.00109215 1.0
  0.99999994   0.00023740   0.00024096 1.0
  0.98839121   0.15192943   0.00051161 1.0
  0.95386014   0.30024978   0.00094794 1.0
  0.89733921   0.44134021   0.00107632 1.0
  0.82026013   0.57198995   0.00089776 1.0
  0.72449984   0.68927483   0.00043289 1.0
  0.61206683   0.79080604   0.00004810 1.0
  0.48544325   0.87426816   0.00016330 1.0
  0.34753234   0.93766797   0.00024643 1.0
  0.20149475   0.97948957   0.00020308 1.0
  0.05028621   0.99873485   0.00003426 1.0
  0.11709541   0.99312066   0.00012934 1.0
  0.30424163   0.95259487   0.00019170 1.0
  0.48187177   0.87624172   0.00022721 1.0
  0.61639606   0.78743624   0.00024897 1.0
  0.68825510   0.72546871   0.00026135 1.0
  0.68825510   0.72546871   0.00026135 1.0
  0.68807261   0.72564167   0.00050636 1.0
  0.61620756   0.78758369   0.00041442 1.0
  0.48168069   0.87634676   0.00027339 1.0
  0.30406417   0.95265155   0.00004744 1.0
  0.11696570   0.99313589   0.00036940 1.0
  0.05026844   0.99873478   0.00138964 1.0
  0.20132145   0.97952223   0.00242554 1.0
  0.34732987   0.93773908   0.00271789 1.0
  0.48532179   0.87433268   0.00226388 1.0
  0.61211333   0.79076934   0.00106282 1.0
  0.72478543   0.68897405   0.00091425 1.0
  0.82073974   0.57129496   0.00289095 1.0
  0.89777881   0.44042968   0.00386065 1.0
  0.95411971   0.29940154   0.00378203 1.0
  0.98846061   0.15145481   0.00265648 1.0
  0.99999983   0.00000552   0.00058570 1.0
  0.98846511   0.15144362   0.00124826 1.0
  0.95412789   0.29939048   0.00230520 1.0
  0.89778892   0.44041820   0.00261962 1.0
  0.82074481   0.57129081   0.00218526 1.0
  0.72478651   0.68897272   0.00105247 1.0
  0.61210316   0.79077792   0.00011859 1.0
  0.48530777   0.87434330   0.00039541 1.0
  0.34731052   0.93774999   0.00059846 1.0
  0.20130769   0.97952793   0.00049297 1.0
  0.05025235   0.99873655   0.00008231 1.0
  0.11697131   0.99313525   0.00031100 1.0
  0.30406913   0.95264985   0.00046758 1.0
  0.48168098   0.87634647   0.00055129 1.0
  0.61620858   0.78758277   0.00060189 1.0
  0.68807628   0.72563809   0.00063641 1.0
  0.68807628   0.72563809   0.00063641 1.0
  0.68814461   0.72557356   0.00005382 1.0
  0.61627224   0.78753319   0.00004585 1.0
  0.48172947   0.87631998   0.00002996 1.0
  0.30407358   0.95264855   0.00000577 1.0
  0.11689291   0.99314452   0.00004163 1.0
  0.05054678   0.99872168   0.00015090 1.0
  0.20180114   0.97942648   0.00026572 1.0
  0.34784307   0.93755272   0.00029730 1.0
  0.48571761   0.87411575   0.00024794 1.0
  0.61228356   0.79063825   0.00011609 1.0
  0.72466079   0.68910574   0.00010030 1.0
  0.82041523   0.57176809   0.00031616 1.0
  0.89744497   0.44112623   0.00042405 1.0
  0.95390034   0.30012324   0.00041433 1.0
  0.98838347   0.15198038   0.00029112 1.0
  0.99999999   0.00012621   0.00006412 1.0
  0.98842829   0.15168881   0.00013690 1.0
  0.95399324   0.29982802   0.00025397 1.0
  0.89756147   0.44088924   0.00028707 1.0
  0.82050175   0.57164396   0.00024027 1.0
  0.72463893   0.68912873   0.00011607 1.0
  0.61208653   0.79079079   0.00001273 1.0
  0.48537596   0.87430554   0.00004327 1.0
  0.34742444   0.93770798   0.00006567 1.0
  0.20140115   0.97950884   0.00005447 1.0
  0.05026920   0.99873570   0.00000861 1.0
  0.11703528   0.99312776   0.00003356 1.0
  0.30415819   0.95262154   0.00005157 1.0
  0.48177904   0.87629273   0.00006035 1.0
  0.61630545   0.78750720   0.00006567 1.0
  0.68816839   0.72555101   0.00006983 1.0
  0.68816839   0.72555101   0.00006983 1.0
  0.68816775   0.72555152   0.00036772 1.0
  0.61629015   0.78751911   0.00030073 1.0
  0.48174191   0.87631312   0.00019938 1.0
  0.30407505   0.95264808   0.00003459 1.0
  0.11687289   0.99314684   0.00026897 1.0
  0.05062365   0.99871729   0.00101111 1.0
  0.20192676   0.97939904   0.00176405 1.0
  0.34798075   0.93749959   0.00197711 1.0
  0.48582447   0.87405484   0.00164714 1.0
  0.61232963   0.79060219   0.00077275 1.0
  0.72462909   0.68913876   0.00066610 1.0
  0.82032443   0.57189457   0.00210437 1.0
  0.89735207   0.44130644   0.00280926 1.0
  0.95383622   0.30031464   0.00275246 1.0
  0.98835999   0.15212099   0.00193276 1.0
  0.99999990   0.00015683   0.00042476 1.0
  0.98841887   0.15174751   0.00090793 1.0
  0.95395625   0.29994109   0.00167874 1.0
  0.89749985   0.44101065   0.00190561 1.0
  0.82043446   0.57173838   0.00159123 1.0
  0.72460291   0.68916619   0.00076686 1.0
  0.61208452   0.79079235   0.00008539 1.0
  0.48539313   0.87429596   0.00028681 1.0
  0.34745324   0.93769721   0.00043593 1.0
  0.20142752   0.97950336   0.00035911 1.0
  0.05027736   0.99873529   0.00005975 1.0
  0.11705093   0.99312589   0.00022673 1.0
  0.30418020   0.95261445   0.00033978 1.0
  0.48180700   0.87627727   0.00040150 1.0
  0.61632888   0.78748874   0.00043846 1.0
  0.68819267   0.72552784   0.00046237 1.0
  0.68819267   0.72552784   0.00046237 1.0
  0.68805061   0.72566264   0.00028539 1.0
  0.61618942   0.78759796   0.00023244 1.0
  0.48166642   0.87635463   0.00015496 1.0
  0.30406159   0.95265238   0.00002618 1.0
  0.11698784   0.99313332   0.00020849 1.0
  0.05018674   0.99873955   0.00078128 1.0
  0.20118301   0.97955272   0.00136567 1.0
  0.34718304   0.93779614   0.00152951 1.0
  0.48520567   0.87439913   0.00127318 1.0
  0.61206498   0.79080725   0.00059824 1.0
  0.72482319   0.68893474   0.00051508 1.0
  0.82083998   0.57115591   0.00162687 1.0
  0.89788301   0.44022879   0.00217230 1.0
  0.95419050   0.29919218   0.00212908 1.0
  0.98848697   0.15129860   0.00149497 1.0
  0.99999995   0.00002968   0.00032930 1.0
  0.98847697   0.15136973   0.00070189 1.0
  0.95417136   0.29925796   0.00129770 1.0
  0.89785796   0.44028277   0.00147453 1.0
  0.82082199   0.57118276   0.00122994 1.0
  0.72482625   0.68893146   0.00059301 1.0
  0.61211323   0.79077013   0.00006524 1.0
  0.48528250   0.87435739   0.00022168 1.0
  0.34728276   0.93776040   0.00033670 1.0
  0.20127533   0.97953467   0.00027796 1.0
  0.05024763   0.99873679   0.00004614 1.0
  0.11695550   0.99313714   0.00017546 1.0
  0.30404226   0.95265851   0.00026251 1.0
  0.48165586   0.87636039   0.00030990 1.0
  0.61617924   0.78760588   0.00033901 1.0
  0.68804765   0.72566542   0.00035872 1.0
  0.68804765   0.72566542   0.00035872 1.0
  0.68828402   0.72544100   0.00068548 1.0
  0.61639796   0.78743459   0.00056258 1.0
  0.48181984   0.87627022   0.00037082 1.0
  0.30408699   0.95264427   0.00006440 1.0
  0.11675541   0.99316057   0.00050262 1.0
  0.05107298   0.99869315   0.00188457 1.0
  0.20269536   0.97923632   0.00329011 1.0
  0.34880244   0.93718901   0.00369080 1.0
  0.48646501   0.87369466   0.00307325 1.0
  0.61259729   0.79039388   0.00144262 1.0
  0.72442045   0.68935729   0.00123997 1.0
  0.81978110   0.57266356   0.00392337 1.0
  0.89678645   0.44243263   0.00523701 1.0
  0.95345649   0.30148701   0.00512835 1.0
  0.98822343   0.15297541   0.00360296 1.0
  0.99999962   0.00034658   0.00079399 1.0
  0.98835488   0.15215710   0.00169035 1.0
  0.95372504   0.30066391   0.00312426 1.0
  0.89711786   0.44177703   0.00355086 1.0
  0.82002025   0.57232685   0.00296193 1.0
  0.72436540   0.68941476   0.00142924 1.0
  0.61204984   0.79081917   0.00015848 1.0
  0.48550855   0.87423175   0.00053599 1.0
  0.34763510   0.93762955   0.00081179 1.0
  0.20158454   0.97947089   0.00067048 1.0
  0.05030818   0.99873374   0.00011079 1.0
  0.11715394   0.99311368   0.00042418 1.0
  0.30432270   0.95256879   0.00063296 1.0
  0.48196460   0.87619037   0.00074745 1.0
  0.61648253   0.78736816   0.00081805 1.0
  0.68834528   0.72538268   0.00086312 1.0
  0.68834528   0.72538268   0.00086312 1.0
  0.68797340   0.72573588   0.00020173 1.0
  0.61612035   0.78765201   0.00016804 1.0
  0.48161520   0.87638279   0.00011015 1.0
  0.30405181   0.95265550   0.00001884 1.0
  0.11706681   0.99312403   0.00014921 1.0
  0.04989384   0.99875437   0.00055999 1.0
  0.20068204   0.97965594   0.00097784 1.0
  0.34664174   0.93799696   0.00109514 1.0
  0.48478716   0.87463168   0.00091261 1.0
  0.61188925   0.79094333   0.00042802 1.0
  0.72495756   0.68879344   0.00036783 1.0
  0.82119291   0.57064950   0.00116493 1.0
  0.89824482   0.43949269   0.00155490 1.0
  0.95443219   0.29842397   0.00152353 1.0
  0.98857213   0.15074483   0.00107081 1.0
  0.99999996   0.00015137   0.00023605 1.0
  0.98851730   0.15110693   0.00050186 1.0
  0.95431896   0.29878833   0.00092912 1.0
  0.89810559   0.43977862   0.00105430 1.0
  0.82108930   0.57079908   0.00087935 1.0
  0.72498103   0.68876870   0.00042442 1.0
  0.61213084   0.79075650   0.00004682 1.0
  0.48521232   0.87439635   0.00015962 1.0
  0.34715988   0.93780593   0.00024081 1.0
  0.20117262   0.97955579   0.00019884 1.0
  0.05023245   0.99873755   0.00003236 1.0
  0.11689021   0.99314483   0.00012532 1.0
  0.30394712   0.95268889   0.00018852 1.0
  0.48155326   0.87641680   0.00022196 1.0
  0.61608291   0.78768127   0.00024316 1.0
  0.68794468   0.72576308   0.00025706 1.0
  0.68794468   0.72576308   0.00025706 1.0
  0.68788263   0.72582193   0.00006172 1.0
  0.61604366   0.78771201   0.00005017 1.0
  0.48155927   0.87641352   0.00003353 1.0
  0.30404053   0.95265910   0.00000599 1.0
  0.11715389   0.99311377   0.00004541 1.0
  0.04956517   0.99877088   0.00016917 1.0
  0.20011887   0.97977158   0.00029440 1.0
  0.34603674   0.93822091   0.00033069 1.0
  0.48432106   0.87489030   0.00027379 1.0
  0.61168833   0.79109884   0.00012923 1.0
  0.72510463   0.68863870   0.00011202 1.0
  0.82158288   0.57008898   0.00035331 1.0
  0.89864765   0.43867093   0.00047120 1.0
  0.95469962   0.29757087   0.00046204 1.0
  0.98866753   0.15012130   0.00032406 1.0
  0.99999996   0.00028881   0.00007029 1.0
  0.98856208   0.15081444   0.00015288 1.0
  0.95448115   0.29827112   0.00028330 1.0
  0.89837848   0.43922203   0.00032180 1.0
  0.82138234   0.57037792   0.00026734 1.0
  0.72515227   0.68858854   0.00012901 1.0
  0.61215255   0.79073969   0.00001476 1.0
  0.48513270   0.87444054   0.00004756 1.0
  0.34702250   0.93785680   0.00007352 1.0
  0.20105971   0.97957898   0.00006013 1.0
  0.05021299   0.99873853   0.00001006 1.0
  0.11681584   0.99315359   0.00003764 1.0
  0.30384269   0.95272221   0.00005662 1.0
  0.48143914   0.87647952   0.00006748 1.0
  0.61597031   0.78776937   0.00007325 1.0
  0.68783233   0.72586960   0.00007732 1.0
  0.68783233   0.72586960   0.00007732 1.0
  0.68832328   0.72540406   0.00010033 1.0
  0.61643784   0.78740357   0.00008194 1.0
  0.48184773   0.87625496   0.00005538 1.0
  0.30409639   0.95264127   0.00000935 1.0
  0.11670918   0.99316613   0.00007387 1.0
  0.05123901   0.99868638   0.00027304 1.0
  0.20298692   0.97918133   0.00047929 1.0
  0.34911470   0.93707985   0.00053731 1.0
  0.48670880   0.87356416   0.00044689 1.0
  0.61270208   0.79031393   0.00020938 1.0
  0.72434553   0.68943710   0.00018067 1.0
  0.81958846   0.57295238   0.00057406 1.0
  0.89659460   0.44285159   0.00076679 1.0
  0.95333162   0.30192428   0.00074966 1.0
  0.98818065   0.15329297   0.00052448 1.0
  0.99999991   0.00041516   0.00011466 1.0
  0.98833443   0.15229904   0.00024812 1.0
  0.95364733   0.30092616   0.00045876 1.0
  0.89698635   0.44205794   0.00052020 1.0
  0.81987712   0.57253936   0.00043674 1.0
  0.72427682   0.68950928   0.00020876 1.0
  0.61204163   0.79082554   0.00002474 1.0
  0.48554514   0.87421159   0.00008015 1.0
  0.34770565   0.93760374   0.00011873 1.0
  0.20164187   0.97945931   0.00009646 1.0
  0.05031598   0.99873335   0.00001821 1.0
  0.11719132   0.99310935   0.00006316 1.0
  0.30437705   0.95255163   0.00009163 1.0
  0.48202246   0.87615885   0.00010880 1.0
  0.61654358   0.78732077   0.00012104 1.0
  0.68839413   0.72533682   0.00012301 1.0
  0.68839413   0.72533682   0.00012301 1.0
  0.68786010   0.72584285   0.00079934 1.0
  0.61602096   0.78772949   0.00065616 1.0
  0.48154356   0.87642205   0.00043462 1.0
  0.30403472   0.95266095   0.00007475 1.0
  0.11717922   0.99311061   0.00058575 1.0
  0.04947376   0.99877300   0.00220073 1.0
  0.19995762   0.97979702   0.00384030 1.0
  0.34586629   0.93827394   0.00430376 1.0
  0.48418458   0.87495854   0.00358343 1.0
  0.61162924   0.79114275   0.00167935 1.0
  0.72514500   0.68859469   0.00144727 1.0
  0.82168112   0.56992909   0.00457891 1.0
  0.89874121   0.43843682   0.00611437 1.0
  0.95475677   0.29732738   0.00599438 1.0
  0.98868429   0.14995219   0.00420942 1.0
  0.99999951   0.00033282   0.00092702 1.0
  0.98857207   0.15073602   0.00197918 1.0
  0.95452062   0.29812249   0.00365637 1.0
  0.89844260   0.43907136   0.00415107 1.0
  0.82145989   0.57025577   0.00346502 1.0
  0.72519720   0.68853920   0.00166873 1.0
  0.61215888   0.79073477   0.00018667 1.0
  0.48510892   0.87445351   0.00062708 1.0
  0.34699250   0.93786742   0.00094909 1.0
  0.20102762   0.97958526   0.00078166 1.0
  0.05020944   0.99873870   0.00012915 1.0
  0.11679489   0.99315593   0.00049360 1.0
  0.30381037   0.95273224   0.00073951 1.0
  0.48140922   0.87649552   0.00087275 1.0
  0.61593267   0.78779822   0.00095417 1.0
  0.68781317   0.72588706   0.00100743 1.0
  0.68781317   0.72588706   0.00100743 1.0
  0.68780014   0.72590011   0.00005531 1.0
  0.61596217   0.78777573   0.00004639 1.0
  0.48149880   0.87644675   0.00003054 1.0
  0.30402893   0.95266280   0.00000598 1.0
  0.11724447   0.99310308   0.00004164 1.0
  0.04922297   0.99878780   0.00015486 1.0
  0.19953027   0.97989163   0.00027119 1.0
  0.34540854   0.93845237   0.00030245 1.0
  0.48383176   0.87516099   0.00025170 1.0
  0.61147987   0.79125998   0.00011847 1.0
  0.72526070   0.68847433   0.00010376 1.0
  0.82199110   0.56950024   0.00032498 1.0
  0.89906513   0.43781469   0.00043356 1.0
  0.95497732   0.29667852   0.00042475 1.0
  0.98876599   0.14947148   0.00029836 1.0
  0.99999990   0.00043208   0.00006438 1.0
  0.98860842   0.15051038   0.00014129 1.0
  0.95465114   0.29772661   0.00026208 1.0
  0.89866206   0.43864155   0.00029581 1.0
  0.82169237   0.56993121   0.00024749 1.0
  0.72533311   0.68839804   0.00011963 1.0
  0.61217574   0.79072173   0.00001362 1.0
  0.48504497   0.87448921   0.00004414 1.0
  0.34688531   0.93790755   0.00006758 1.0
  0.20093878   0.97960380   0.00005532 1.0
  0.05019617   0.99873938   0.00000922 1.0
  0.11674243   0.99316222   0.00003412 1.0
  0.30373238   0.95275739   0.00005275 1.0
  0.48131875   0.87654564   0.00006104 1.0
  0.61585166   0.78786212   0.00006788 1.0
  0.68772495   0.72597134   0.00007086 1.0
  0.68772495   0.72597134   0.00007086 1.0
  0.68830816   0.72541840   0.00017821 1.0
  0.61641662   0.78742018   0.00014912 1.0
  0.48183517   0.87626187   0.00009698 1.0
  0.30409156   0.95264281   0.00001737 1.0
  0.11673146   0.99316351   0.00013108 1.0
  0.05115667   0.99869052   0.00049492 1.0
  0.20284385   0.97921072   0.00086246 1.0
  0.34896114   0.93713670   0.00096634 1.0
  0.48658811   0.87363114   0.00080471 1.0
  0.61265395   0.79035119   0.00037731 1.0
  0.72438293   0.68939775   0.00032663 1.0
  0.81968858   0.57280849   0.00103038 1.0
  0.89669543   0.44264592   0.00137432 1.0
  0.95340084   0.30170352   0.00134801 1.0
  0.98820494   0.15313426   0.00094354 1.0
  0.99999991   0.00038242   0.00020808 1.0
  0.98834558   0.15222621   0.00044476 1.0
  0.95369008   0.30078989   0.00082359 1.0
  0.89705480   0.44191834   0.00093444 1.0
  0.81995192   0.57243187   0.00077896 1.0
  0.72432168   0.68946208   0.00037711 1.0
  0.61204701   0.79082138   0.00004269 1.0
  0.48552790   0.87422116   0.00014213 1.0
  0.34767094   0.93761659   0.00021342 1.0
  0.20161502   0.97946483   0.00017494 1.0
  0.05030511   0.99873390   0.00002893 1.0
  0.11717172   0.99311166   0.00010999 1.0
  0.30435098   0.95255995   0.00016631 1.0
  0.48199058   0.87617638   0.00019520 1.0
  0.61651393   0.78734397   0.00021388 1.0
  0.68837025   0.72535946   0.00022790 1.0
  0.68837025   0.72535946   0.00022790 1.0
  0.68790351   0.72580205   0.00037553 1.0
  0.61605762   0.78770103   0.00030786 1.0
  0.48157029   0.87640745   0.00020359 1.0
  0.30404195   0.95265864   0.00003501 1.0
  0.11713306   0.99311619   0.00027528 1.0
  0.04963188   0.99876705   0.00103228 1.0
  0.20023522   0.97974620   0.00180126 1.0
  0.34616212   0.93817254   0.00201820 1.0
  0.48441593   0.87483620   0.00168128 1.0
  0.61173020   0.79106608   0.00078878 1.0
  0.72507633   0.68866817   0.00067775 1.0
  0.82150273   0.57020055   0.00214476 1.0
  0.89856186   0.43883752   0.00286548 1.0
  0.95464283   0.29774013   0.00280895 1.0
  0.98864604   0.15025016   0.00197280 1.0
  0.99999987   0.00026006   0.00043520 1.0
  0.98855294   0.15087156   0.00092503 1.0
  0.95444847   0.29837088   0.00171189 1.0
  0.89832313   0.43933106   0.00194315 1.0
  0.82132305   0.57046106   0.00162136 1.0
  0.72512144   0.68862057   0.00078155 1.0
  0.61215144   0.79074055   0.00008650 1.0
  0.48514688   0.87443263   0.00029340 1.0
  0.34705305   0.93784539   0.00044428 1.0
  0.20108331   0.97957408   0.00036592 1.0
  0.05021973   0.99873819   0.00006121 1.0
  0.11682976   0.99315193   0.00023166 1.0
  0.30386380   0.95271542   0.00034742 1.0
  0.48146349   0.87646605   0.00040854 1.0
  0.61599137   0.78775277   0.00044797 1.0
  0.68785786   0.72584526   0.00047113 1.0
  0.68785786   0.72584526   0.00047113 1.0
  0.68799882   0.72571181   0.00005530 1.0
  0.61614134   0.78763560   0.00004637 1.0
  0.48163242   0.87637333   0.00003053 1.0
  0.30405431   0.95265470   0.00000598 1.0
  0.11704183   0.99312698   0.00004162 1.0
  0.04998370   0.99875002   0.00015481 1.0
  0.20083545   0.97962495   0.00027115 1.0
  0.34680998   0.93793536   0.00030247 1.0
  0.48491688   0.87456021   0.00025285 1.0
  0.61194254   0.79090222   0.00011743 1.0
  0.72491562   0.68883767   0.00010163 1.0
  0.82108390   0.57080743   0.00032397 1.0
  0.89813456   0.43972050   0.00043137 1.0
  0.95435959   0.29865966   0.00042215 1.0
  0.98854614   0.15091865   0.00029709 1.0
  0.99999999   0.00011339   0.00006433 1.0